ITEM: TIMESTEP
500150
ITEM: NUMBER OF ATOMS
92
ITEM: BOX BOUNDS pp pp ff
0.0000000000000000e+00 1.1480000000000000e+01
0.0000000000000000e+00 8.1175858480215659e+00
0.0000000000000000e+00 2.0117585848021569e+01
ITEM: ATOMS id type element x y z
1 1 Fe   0.00000000   0.00000000   0.00000000
2 1 Fe   2.87000000   0.00000000   0.00000000
5 1 Fe   1.43500000   2.02939646   0.00000000
6 1 Fe   4.30500000   2.02939646   0.00000000
17 1 Fe   0.00000000   2.02939646   2.02939646
18 1 Fe   2.87000000   2.02939646   2.02939646
29 1 Fe   1.43500000   0.00000000   2.02939646
30 1 Fe   4.30500000   0.00000000   2.02939646
3 1 Fe   5.74000000   0.00000000   0.00000000
4 1 Fe   8.61000000   0.00000000   0.00000000
7 1 Fe   7.17500000   2.02939646   0.00000000
8 1 Fe  10.04500000   2.02939646   0.00000000
19 1 Fe   5.74000000   2.02939646   2.02939646
20 1 Fe   8.61000000   2.02939646   2.02939646
31 1 Fe   7.17500000   0.00000000   2.02939646
32 1 Fe  10.04500000   0.00000000   2.02939646
9 1 Fe   0.00000000   4.05879292   0.00000000
10 1 Fe   2.87000000   4.05879292   0.00000000
13 1 Fe   1.43500000   6.08818939   0.00000000
14 1 Fe   4.30500000   6.08818939   0.00000000
21 1 Fe   1.43500000   4.05879292   2.02939646
22 1 Fe   4.30500000   4.05879292   2.02939646
25 1 Fe   0.00000000   6.08818939   2.02939646
26 1 Fe   2.87000000   6.08818939   2.02939646
33 1 Fe   0.12490880   8.06988038   3.99256177
46 1 Fe   4.30433751   6.34068091   3.94852166
11 1 Fe   5.74000000   4.05879292   0.00000000
12 1 Fe   8.61000000   4.05879292   0.00000000
15 1 Fe   7.17500000   6.08818939   0.00000000
16 1 Fe  10.04500000   6.08818939   0.00000000
23 1 Fe   7.17500000   4.05879292   2.02939646
24 1 Fe  10.04500000   4.05879292   2.02939646
27 1 Fe   5.74000000   6.08818939   2.02939646
28 1 Fe   8.61000000   6.08818939   2.02939646
44 1 Fe   8.50388906   4.25876239   3.91558209
47 1 Fe   7.21263184   6.12210871   3.96887613
37 1 Fe   1.36247985   2.11634186   4.12685723
35 1 Fe   5.68998886   0.26108299   4.07209242
38 1 Fe   4.35516798   2.23093912   4.07787718
50 1 Fe   2.76517036   2.03687200   6.08648971
62 1 Fe   4.39037028   0.25893153   6.10052603
61 1 Fe   1.41781020   0.05414075   6.35732703
34 1 Fe   2.80289061   0.07840983   4.14704381
42 1 Fe   2.94259427   4.05879929   4.02657311
39 1 Fe   7.04030744   2.11123091   4.15172653
40 1 Fe   9.81230972   2.17031809   4.03467175
36 1 Fe   8.64855431   0.03368191   4.06342043
49 1 Fe  11.32735483   2.11525037   6.07465056
51 1 Fe   5.77380348   2.24315701   6.18917494
52 1 Fe   8.61743756   2.05805307   6.04738147
63 1 Fe   7.15547718   0.15200960   6.15717149
64 1 Fe   9.93628176   0.06520794   6.11678466
55 1 Fe   7.40328279   4.03466483   6.21892742
41 1 Fe   0.09868387   4.16454544   4.04996248
53 1 Fe   1.24271242   4.23147211   6.14142908
54 1 Fe   4.49550525   4.30626326   6.06859611
45 1 Fe   1.37649757   6.05518200   4.06000251
58 1 Fe   2.94161621   6.20036747   6.17686871
57 1 Fe   0.10757926   6.13441216   6.22490927
91 2 N   4.16525385   4.09069298   7.94370833
48 1 Fe  10.01851867   6.13631188   4.21547976
43 1 Fe   5.90560495   4.12425140   4.04662378
59 1 Fe   5.78739655   6.31374450   5.97365647
56 1 Fe  10.08507965   4.07103580   6.14660086
60 1 Fe   8.58083484   6.22271733   6.13248222
74 1 Fe   2.38414311   3.88014796   8.35983115
69 1 Fe   1.24253309   1.95552593   8.18741812
70 1 Fe   4.23481761   2.15384268   8.33258167
86 3 H   2.63050325   2.43073800   9.21573382
90 3 H  -0.00449879   2.32757264   9.09704666
66 1 Fe   3.00679818   0.09620887   8.18347792
89 3 H   1.55672663   0.34519506   9.04838884
83 3 H   5.74189099   1.76420620   9.52500299
71 1 Fe   6.93717800   1.92979057   8.22030559
72 1 Fe  10.22893906   1.97697965   8.25990202
92 2 N   8.66996643   2.10394503   9.10492899
73 1 Fe  11.40208072   3.99113282   8.10463106
76 1 Fe   8.72340510   3.75446823   8.52074371
75 1 Fe   5.87919802   3.96605163   8.26111629
67 1 Fe   5.63066412   8.10817579   8.25198710
78 1 Fe   4.28489042   6.03560697   8.19900374
77 1 Fe   1.39815623   6.03840591   8.35068682
81 3 H   1.26633165   4.50303412   9.25425939
85 3 H   4.52061481   7.33798107   9.23843710
68 1 Fe   8.62890833   8.07014468   8.21811883
65 1 Fe  11.40352655   8.08502840   8.13911051
80 1 Fe   9.92919946   6.03561669   8.06692954
79 1 Fe   7.03707009   6.06473909   8.16548854
87 3 H  10.31721066   7.28319332   9.09126405
88 3 H   7.02017463   4.68306483   9.17685087
84 3 H   7.13157221   7.61683604   9.05147582
82 3 H  10.33283440   4.99442483   9.15409366
ITEM: TIMESTEP
500160
ITEM: NUMBER OF ATOMS
92
ITEM: BOX BOUNDS pp pp ff
0.0000000000000000e+00 1.1480000000000000e+01
0.0000000000000000e+00 8.1175858480215659e+00
0.0000000000000000e+00 2.0117585848021569e+01
ITEM: ATOMS id type element x y z
1 1 Fe   0.00000000   0.00000000   0.00000000
2 1 Fe   2.87000000   0.00000000   0.00000000
5 1 Fe   1.43500000   2.02939646   0.00000000
6 1 Fe   4.30500000   2.02939646   0.00000000
17 1 Fe   0.00000000   2.02939646   2.02939646
18 1 Fe   2.87000000   2.02939646   2.02939646
29 1 Fe   1.43500000   0.00000000   2.02939646
30 1 Fe   4.30500000   0.00000000   2.02939646
3 1 Fe   5.74000000   0.00000000   0.00000000
4 1 Fe   8.61000000   0.00000000   0.00000000
7 1 Fe   7.17500000   2.02939646   0.00000000
8 1 Fe  10.04500000   2.02939646   0.00000000
19 1 Fe   5.74000000   2.02939646   2.02939646
20 1 Fe   8.61000000   2.02939646   2.02939646
31 1 Fe   7.17500000   0.00000000   2.02939646
32 1 Fe  10.04500000   0.00000000   2.02939646
9 1 Fe   0.00000000   4.05879292   0.00000000
10 1 Fe   2.87000000   4.05879292   0.00000000
13 1 Fe   1.43500000   6.08818939   0.00000000
14 1 Fe   4.30500000   6.08818939   0.00000000
21 1 Fe   1.43500000   4.05879292   2.02939646
22 1 Fe   4.30500000   4.05879292   2.02939646
25 1 Fe   0.00000000   6.08818939   2.02939646
26 1 Fe   2.87000000   6.08818939   2.02939646
33 1 Fe   0.14876657   8.06056936   4.01277217
46 1 Fe   4.31938364   6.34650016   3.94566111
11 1 Fe   5.74000000   4.05879292   0.00000000
12 1 Fe   8.61000000   4.05879292   0.00000000
15 1 Fe   7.17500000   6.08818939   0.00000000
16 1 Fe  10.04500000   6.08818939   0.00000000
23 1 Fe   7.17500000   4.05879292   2.02939646
24 1 Fe  10.04500000   4.05879292   2.02939646
27 1 Fe   5.74000000   6.08818939   2.02939646
28 1 Fe   8.61000000   6.08818939   2.02939646
44 1 Fe   8.51414102   4.25156923   3.94042085
47 1 Fe   7.21464893   6.14066238   3.96250667
37 1 Fe   1.37156654   2.13716195   4.12760735
35 1 Fe   5.69875089   0.23850274   4.10471536
38 1 Fe   4.35034354   2.24837483   4.08931867
50 1 Fe   2.76092785   2.04141133   6.10269179
62 1 Fe   4.37929751   0.23993694   6.07316170
61 1 Fe   1.40257397   0.08309014   6.37537939
34 1 Fe   2.78605735   0.07157026   4.12470916
42 1 Fe   2.93612433   4.06828463   4.00644730
39 1 Fe   7.03962215   2.10801186   4.14086727
40 1 Fe   9.82507978   2.20714195   4.02328424
36 1 Fe   8.65308298   0.04213244   4.08938117
49 1 Fe  11.35860438   2.10387973   6.09658826
51 1 Fe   5.75947427   2.25640575   6.18779951
52 1 Fe   8.63112623   2.07718247   6.04016736
63 1 Fe   7.17724433   0.14478610   6.18023654
64 1 Fe   9.94432043   0.08173379   6.14784874
55 1 Fe   7.36752058   4.04820613   6.19937931
41 1 Fe   0.09701624   4.15727331   4.06154379
53 1 Fe   1.26996372   4.22379685   6.16736614
54 1 Fe   4.49132047   4.29291153   6.07508540
45 1 Fe   1.35808537   6.05533648   4.01714770
58 1 Fe   2.92154461   6.21175518   6.19686336
57 1 Fe   0.12502923   6.12068785   6.22224628
91 2 N   4.17319072   4.08033498   7.96816250
48 1 Fe  10.02342108   6.12903354   4.21967414
43 1 Fe   5.88006958   4.12397904   4.05977426
59 1 Fe   5.80352005   6.30805224   5.97887027
56 1 Fe  10.07870365   4.08264244   6.18487104
60 1 Fe   8.58093498   6.21819062   6.13605762
74 1 Fe   2.37938315   3.92200754   8.37548004
69 1 Fe   1.26269853   1.95363570   8.15140009
70 1 Fe   4.23587397   2.17826376   8.31710959
86 3 H   2.70522243   2.48881362   9.23794091
90 3 H  -0.01688769   2.46606823   9.16937481
66 1 Fe   3.01083314   0.09676394   8.16637750
89 3 H   1.68745470   0.46283671   8.98369169
83 3 H   5.64044538   1.73652032   9.53642402
71 1 Fe   6.93184015   1.91831228   8.24795479
72 1 Fe  10.21494345   1.98983199   8.25634097
92 2 N   8.68024088   2.10170117   9.11447262
73 1 Fe  11.41157138   3.97314226   8.08240156
76 1 Fe   8.73709564   3.74565550   8.52366578
75 1 Fe   5.88349030   3.98614270   8.22359533
67 1 Fe   5.64068835   8.09693584   8.26179294
78 1 Fe   4.31035170   6.02801757   8.17524621
77 1 Fe   1.40144122   6.04174847   8.34377522
81 3 H   1.14595763   4.59205090   9.33398977
85 3 H   4.57569529   7.31393401   9.33471775
68 1 Fe   8.65785256   8.07428046   8.24752958
65 1 Fe  11.43787889   8.07413630   8.12930490
80 1 Fe   9.93145218   6.00929621   8.07581337
79 1 Fe   7.03172879   6.04888830   8.16042802
87 3 H  10.15797150   7.39502155   9.01855813
88 3 H   7.09549757   4.73578614   9.02731787
84 3 H   7.24264505   7.62499918   9.09302844
82 3 H  10.26749128   4.87991560   9.25370294
ITEM: TIMESTEP
500170
ITEM: NUMBER OF ATOMS
92
ITEM: BOX BOUNDS pp pp ff
0.0000000000000000e+00 1.1480000000000000e+01
0.0000000000000000e+00 8.1175858480215659e+00
0.0000000000000000e+00 2.0117585848021569e+01
ITEM: ATOMS id type element x y z
1 1 Fe   0.00000000   0.00000000   0.00000000
2 1 Fe   2.87000000   0.00000000   0.00000000
5 1 Fe   1.43500000   2.02939646   0.00000000
6 1 Fe   4.30500000   2.02939646   0.00000000
17 1 Fe   0.00000000   2.02939646   2.02939646
18 1 Fe   2.87000000   2.02939646   2.02939646
29 1 Fe   1.43500000   0.00000000   2.02939646
30 1 Fe   4.30500000   0.00000000   2.02939646
3 1 Fe   5.74000000   0.00000000   0.00000000
4 1 Fe   8.61000000   0.00000000   0.00000000
7 1 Fe   7.17500000   2.02939646   0.00000000
8 1 Fe  10.04500000   2.02939646   0.00000000
19 1 Fe   5.74000000   2.02939646   2.02939646
20 1 Fe   8.61000000   2.02939646   2.02939646
31 1 Fe   7.17500000   0.00000000   2.02939646
32 1 Fe  10.04500000   0.00000000   2.02939646
9 1 Fe   0.00000000   4.05879292   0.00000000
10 1 Fe   2.87000000   4.05879292   0.00000000
13 1 Fe   1.43500000   6.08818939   0.00000000
14 1 Fe   4.30500000   6.08818939   0.00000000
21 1 Fe   1.43500000   4.05879292   2.02939646
22 1 Fe   4.30500000   4.05879292   2.02939646
25 1 Fe   0.00000000   6.08818939   2.02939646
26 1 Fe   2.87000000   6.08818939   2.02939646
33 1 Fe   0.16717071   8.05514658   4.03755867
46 1 Fe   4.33480401   6.34692129   3.94742998
11 1 Fe   5.74000000   4.05879292   0.00000000
12 1 Fe   8.61000000   4.05879292   0.00000000
15 1 Fe   7.17500000   6.08818939   0.00000000
16 1 Fe  10.04500000   6.08818939   0.00000000
23 1 Fe   7.17500000   4.05879292   2.02939646
24 1 Fe  10.04500000   4.05879292   2.02939646
27 1 Fe   5.74000000   6.08818939   2.02939646
28 1 Fe   8.61000000   6.08818939   2.02939646
44 1 Fe   8.52821727   4.23927297   3.97164669
47 1 Fe   7.21494316   6.16387729   3.95958201
37 1 Fe   1.38202893   2.15656445   4.12642219
35 1 Fe   5.70920220   0.21031938   4.13618806
38 1 Fe   4.34348257   2.26202120   4.10147943
50 1 Fe   2.75860701   2.05064791   6.12056228
62 1 Fe   4.36529456   0.21738002   6.04807356
61 1 Fe   1.38856055   0.11068168   6.38492655
34 1 Fe   2.76947315   0.06634859   4.10182405
42 1 Fe   2.92724529   4.08223827   3.98963792
39 1 Fe   7.04596235   2.10471012   4.12742432
40 1 Fe   9.84512248   2.24275021   4.01235164
36 1 Fe   8.65523718   0.05184375   4.11499482
49 1 Fe  11.39298180   2.08996967   6.11738715
51 1 Fe   5.74361687   2.26601327   6.18539276
52 1 Fe   8.64401260   2.09633923   6.03741837
63 1 Fe   7.19902470   0.13755123   6.20358572
64 1 Fe   9.95670949   0.09692751   6.17896811
55 1 Fe   7.32801318   4.06620134   6.17980399
41 1 Fe   0.08914511   4.14710016   4.07378644
53 1 Fe   1.30614027   4.20943458   6.19098082
54 1 Fe   4.48201345   4.27658956   6.08305857
45 1 Fe   1.34539153   6.05706651   3.97632557
58 1 Fe   2.89935965   6.22378388   6.21465608
57 1 Fe   0.13679043   6.11065954   6.21822425
91 2 N   4.16089282   4.08090117   8.00194645
48 1 Fe  10.03119633   6.12200893   4.22013858
43 1 Fe   5.84919260   4.12745122   4.07405798
59 1 Fe   5.81968808   6.30019324   5.98640085
56 1 Fe  10.06748983   4.09671833   6.22087832
60 1 Fe   8.58004136   6.21145765   6.13940088
74 1 Fe   2.38156196   3.96825128   8.38857124
69 1 Fe   1.28894629   1.94946997   8.11652749
70 1 Fe   4.23746903   2.20126241   8.30011716
86 3 H   2.75949307   2.52485398   9.24236831
90 3 H   0.00160254   2.63483888   9.27541685
66 1 Fe   3.01649164   0.09390856   8.14882994
89 3 H   1.69440916   0.58146145   8.97156576
83 3 H   5.52628847   1.69310489   9.41741579
71 1 Fe   6.93270727   1.90803409   8.27985681
72 1 Fe  10.19811809   1.99905113   8.24896665
92 2 N   8.67065192   2.07127109   9.11962089
73 1 Fe  11.41935475   3.95966235   8.06837755
76 1 Fe   8.74742433   3.74752102   8.52297290
75 1 Fe   5.89453585   4.00797976   8.18419571
67 1 Fe   5.65181677   8.08597883   8.27237517
78 1 Fe   4.33591857   6.02018490   8.15067661
77 1 Fe   1.40483113   6.04872378   8.33440698
81 3 H   1.01581550   4.68898133   9.41002584
85 3 H   4.58346591   7.28661490   9.39817423
68 1 Fe   8.68548706   8.08156772   8.27780108
65 1 Fe  11.47254202   8.06101215   8.12176573
80 1 Fe   9.93460384   5.98260484   8.08508220
79 1 Fe   7.03044048   6.03866112   8.15177776
87 3 H   9.97560439   7.51834565   8.99491676
88 3 H   7.23534071   4.69548490   8.99214906
84 3 H   7.30887385   7.60175270   9.13014629
82 3 H  10.18617681   4.69437898   9.32404232
ITEM: TIMESTEP
500180
ITEM: NUMBER OF ATOMS
92
ITEM: BOX BOUNDS pp pp ff
0.0000000000000000e+00 1.1480000000000000e+01
0.0000000000000000e+00 8.1175858480215659e+00
0.0000000000000000e+00 2.0117585848021569e+01
ITEM: ATOMS id type element x y z
1 1 Fe   0.00000000   0.00000000   0.00000000
2 1 Fe   2.87000000   0.00000000   0.00000000
5 1 Fe   1.43500000   2.02939646   0.00000000
6 1 Fe   4.30500000   2.02939646   0.00000000
17 1 Fe   0.00000000   2.02939646   2.02939646
18 1 Fe   2.87000000   2.02939646   2.02939646
29 1 Fe   1.43500000   0.00000000   2.02939646
30 1 Fe   4.30500000   0.00000000   2.02939646
3 1 Fe   5.74000000   0.00000000   0.00000000
4 1 Fe   8.61000000   0.00000000   0.00000000
7 1 Fe   7.17500000   2.02939646   0.00000000
8 1 Fe  10.04500000   2.02939646   0.00000000
19 1 Fe   5.74000000   2.02939646   2.02939646
20 1 Fe   8.61000000   2.02939646   2.02939646
31 1 Fe   7.17500000   0.00000000   2.02939646
32 1 Fe  10.04500000   0.00000000   2.02939646
9 1 Fe   0.00000000   4.05879292   0.00000000
10 1 Fe   2.87000000   4.05879292   0.00000000
13 1 Fe   1.43500000   6.08818939   0.00000000
14 1 Fe   4.30500000   6.08818939   0.00000000
21 1 Fe   1.43500000   4.05879292   2.02939646
22 1 Fe   4.30500000   4.05879292   2.02939646
25 1 Fe   0.00000000   6.08818939   2.02939646
26 1 Fe   2.87000000   6.08818939   2.02939646
33 1 Fe   0.17949192   8.05408694   4.06643700
46 1 Fe   4.34986708   6.34193752   3.95395552
11 1 Fe   5.74000000   4.05879292   0.00000000
12 1 Fe   8.61000000   4.05879292   0.00000000
15 1 Fe   7.17500000   6.08818939   0.00000000
16 1 Fe  10.04500000   6.08818939   0.00000000
23 1 Fe   7.17500000   4.05879292   2.02939646
24 1 Fe  10.04500000   4.05879292   2.02939646
27 1 Fe   5.74000000   6.08818939   2.02939646
28 1 Fe   8.61000000   6.08818939   2.02939646
44 1 Fe   8.54502160   4.22296396   4.00835150
47 1 Fe   7.21382832   6.19033439   3.96030419
37 1 Fe   1.39375321   2.17400711   4.12349069
35 1 Fe   5.72144456   0.17793330   4.16534834
38 1 Fe   4.33467446   2.27099786   4.11404322
50 1 Fe   2.75903202   2.06453327   6.13912674
62 1 Fe   4.34863605   0.19194307   6.02626532
61 1 Fe   1.37665951   0.13546817   6.38469359
34 1 Fe   2.75384952   0.06286205   4.07900947
42 1 Fe   2.91625126   4.10058078   3.97663593
39 1 Fe   7.05872317   2.10150691   4.11204597
40 1 Fe   9.87213867   2.27608454   4.00257805
36 1 Fe   8.65561595   0.06293977   4.13984762
49 1 Fe  11.42905538   2.07488212   6.13609440
51 1 Fe   5.72704066   2.27075408   6.18211744
52 1 Fe   8.65572109   2.11555516   6.03908645
63 1 Fe   7.22038748   0.13100855   6.22726583
64 1 Fe   9.97303303   0.11017695   6.20965696
55 1 Fe   7.28582436   4.08811490   6.15986899
41 1 Fe   0.07553877   4.13465303   4.08699439
53 1 Fe   1.35012923   4.18903127   6.21121150
54 1 Fe   4.46687140   4.25793836   6.09263829
45 1 Fe   1.33872574   6.05969306   3.93884479
58 1 Fe   2.87548217   6.23633346   6.22950244
57 1 Fe   0.14294888   6.10429786   6.21289196
91 2 N   4.13665608   4.09505192   8.04346274
48 1 Fe  10.04150764   6.11556741   4.21707998
43 1 Fe   5.81432092   4.13477654   4.08865708
59 1 Fe   5.83529442   6.29004438   5.99614325
56 1 Fe  10.05223066   4.11243548   6.25351511
60 1 Fe   8.57871083   6.20294443   6.14258530
74 1 Fe   2.38873675   4.01784232   8.40094420
69 1 Fe   1.31957598   1.94610008   8.08507963
70 1 Fe   4.23863541   2.22241035   8.28096613
86 3 H   2.77577717   2.53644042   9.22251153
90 3 H   0.03383040   2.78648533   9.31574996
66 1 Fe   3.02374155   0.08773306   8.13160315
89 3 H   1.60719179   0.66283308   9.02552286
83 3 H   5.42305298   1.62190010   9.21515436
71 1 Fe   6.93966614   1.89949053   8.31478219
72 1 Fe  10.18196741   2.00481233   8.23946307
92 2 N   8.64064596   2.01720469   9.11911279
73 1 Fe  11.42563139   3.95071952   8.06472071
76 1 Fe   8.75438527   3.75829972   8.51925663
75 1 Fe   5.91243227   4.03144193   8.14394635
67 1 Fe   5.66313783   8.07484255   8.28405293
78 1 Fe   4.36117286   6.01326976   8.12637858
77 1 Fe   1.40817937   6.05913006   8.32293741
81 3 H   0.91754185   4.77617850   9.42717792
85 3 H   4.55801269   7.25271202   9.39043919
68 1 Fe   8.70809795   8.09358537   8.30645952
65 1 Fe  11.50525722   8.04626821   8.11816874
80 1 Fe   9.93904025   5.95570601   8.09701953
79 1 Fe   7.03394274   6.03448144   8.14064796
87 3 H   9.89173593   7.59337623   9.04455981
88 3 H   7.39715570   4.56749463   9.04402081
84 3 H   7.31809822   7.54173410   9.15523222
82 3 H  10.08044758   4.48559197   9.30677886
ITEM: TIMESTEP
500190
ITEM: NUMBER OF ATOMS
92
ITEM: BOX BOUNDS pp pp ff
0.0000000000000000e+00 1.1480000000000000e+01
0.0000000000000000e+00 8.1175858480215659e+00
0.0000000000000000e+00 2.0117585848021569e+01
ITEM: ATOMS id type element x y z
1 1 Fe   0.00000000   0.00000000   0.00000000
2 1 Fe   2.87000000   0.00000000   0.00000000
5 1 Fe   1.43500000   2.02939646   0.00000000
6 1 Fe   4.30500000   2.02939646   0.00000000
17 1 Fe   0.00000000   2.02939646   2.02939646
18 1 Fe   2.87000000   2.02939646   2.02939646
29 1 Fe   1.43500000   0.00000000   2.02939646
30 1 Fe   4.30500000   0.00000000   2.02939646
3 1 Fe   5.74000000   0.00000000   0.00000000
4 1 Fe   8.61000000   0.00000000   0.00000000
7 1 Fe   7.17500000   2.02939646   0.00000000
8 1 Fe  10.04500000   2.02939646   0.00000000
19 1 Fe   5.74000000   2.02939646   2.02939646
20 1 Fe   8.61000000   2.02939646   2.02939646
31 1 Fe   7.17500000   0.00000000   2.02939646
32 1 Fe  10.04500000   0.00000000   2.02939646
9 1 Fe   0.00000000   4.05879292   0.00000000
10 1 Fe   2.87000000   4.05879292   0.00000000
13 1 Fe   1.43500000   6.08818939   0.00000000
14 1 Fe   4.30500000   6.08818939   0.00000000
21 1 Fe   1.43500000   4.05879292   2.02939646
22 1 Fe   4.30500000   4.05879292   2.02939646
25 1 Fe   0.00000000   6.08818939   2.02939646
26 1 Fe   2.87000000   6.08818939   2.02939646
33 1 Fe   0.18494435   8.05765443   4.09793031
46 1 Fe   4.36338365   6.33180729   3.96498067
11 1 Fe   5.74000000   4.05879292   0.00000000
12 1 Fe   8.61000000   4.05879292   0.00000000
15 1 Fe   7.17500000   6.08818939   0.00000000
16 1 Fe  10.04500000   6.08818939   0.00000000
23 1 Fe   7.17500000   4.05879292   2.02939646
24 1 Fe  10.04500000   4.05879292   2.02939646
27 1 Fe   5.74000000   6.08818939   2.02939646
28 1 Fe   8.61000000   6.08818939   2.02939646
44 1 Fe   8.56294304   4.20440426   4.04840125
47 1 Fe   7.21175044   6.21774894   3.96471659
37 1 Fe   1.40628434   2.18853972   4.11913803
35 1 Fe   5.73524729   0.14391052   4.19036142
38 1 Fe   4.32421361   2.27435557   4.12633236
50 1 Fe   2.76309609   2.08230110   6.15677891
62 1 Fe   4.33007045   0.16509293   6.00922618
61 1 Fe   1.36806458   0.15544633   6.37391375
34 1 Fe   2.74042107   0.06127621   4.05757952
42 1 Fe   2.90386410   4.12249914   3.96827690
39 1 Fe   7.07667605   2.09870201   4.09588099
40 1 Fe   9.90492737   2.30493753   3.99490596
36 1 Fe   8.65488570   0.07519935   4.16292604
49 1 Fe  11.46427502   2.06056093   6.15139076
51 1 Fe   5.71097624   2.26958437   6.17820264
52 1 Fe   8.66559346   2.13429870   6.04488802
63 1 Fe   7.24033602   0.12586341   6.25059932
64 1 Fe   9.99230058   0.12060176   6.23869009
55 1 Fe   7.24343765   4.11263020   6.13992089
41 1 Fe   0.05739035   4.12112960   4.10101287
53 1 Fe   1.39898169   4.16428609   6.22672624
54 1 Fe   4.44565681   4.23817180   6.10375598
45 1 Fe   1.33820857   6.06250581   3.90691414
58 1 Fe   2.85101723   6.24883336   6.24039586
57 1 Fe   0.14361946   6.10133511   6.20648301
91 2 N   4.11812874   4.12250904   8.08985497
48 1 Fe  10.05359188   6.11020966   4.21084727
43 1 Fe   5.77778643   4.14562349   4.10234981
59 1 Fe   5.84924744   6.27790794   6.00764510
56 1 Fe  10.03433457   4.12847783   6.28091428
60 1 Fe   8.57762847   6.19338471   6.14554939
74 1 Fe   2.39877410   4.06766178   8.41307883
69 1 Fe   1.35295611   1.94557205   8.05947930
70 1 Fe   4.23719630   2.24192633   8.25839981
86 3 H   2.74620741   2.52094006   9.17696359
90 3 H   0.07378967   2.88209231   9.26790093
66 1 Fe   3.03089881   0.07913771   8.11681147
89 3 H   1.48548374   0.66156702   9.11666361
83 3 H   5.38278237   1.50056221   9.02951145
71 1 Fe   6.95213880   1.89344052   8.35018085
72 1 Fe  10.16799923   2.00687647   8.22904565
92 2 N   8.59588813   1.94955341   9.10998310
73 1 Fe  11.43080561   3.94671361   8.07177670
76 1 Fe   8.75728431   3.77317636   8.51170964
75 1 Fe   5.93530745   4.05509582   8.10504073
67 1 Fe   5.67387551   8.06332847   8.29583894
78 1 Fe   4.38482573   6.00806383   8.10333688
77 1 Fe   1.41118193   6.07278485   8.30980601
81 3 H   0.86334100   4.84228137   9.36953459
85 3 H   4.50893699   7.22248328   9.30734942
68 1 Fe   8.72198567   8.11060899   8.33122086
65 1 Fe  11.53357490   8.03117748   8.12003443
80 1 Fe   9.94459702   5.93055357   8.11214540
79 1 Fe   7.04345702   6.03424296   8.12988905
87 3 H   9.99682823   7.57042856   9.18749193
88 3 H   7.48145404   4.45905322   9.12838583
84 3 H   7.28262667   7.45800065   9.15848886
82 3 H   9.99336031   4.31312678   9.22377830
ITEM: TIMESTEP
500200
ITEM: NUMBER OF ATOMS
92
ITEM: BOX BOUNDS pp pp ff
0.0000000000000000e+00 1.1480000000000000e+01
0.0000000000000000e+00 8.1175858480215659e+00
0.0000000000000000e+00 2.0117585848021569e+01
ITEM: ATOMS id type element x y z
1 1 Fe   0.00000000   0.00000000   0.00000000
2 1 Fe   2.87000000   0.00000000   0.00000000
5 1 Fe   1.43500000   2.02939646   0.00000000
6 1 Fe   4.30500000   2.02939646   0.00000000
17 1 Fe   0.00000000   2.02939646   2.02939646
18 1 Fe   2.87000000   2.02939646   2.02939646
29 1 Fe   1.43500000   0.00000000   2.02939646
30 1 Fe   4.30500000   0.00000000   2.02939646
3 1 Fe   5.74000000   0.00000000   0.00000000
4 1 Fe   8.61000000   0.00000000   0.00000000
7 1 Fe   7.17500000   2.02939646   0.00000000
8 1 Fe  10.04500000   2.02939646   0.00000000
19 1 Fe   5.74000000   2.02939646   2.02939646
20 1 Fe   8.61000000   2.02939646   2.02939646
31 1 Fe   7.17500000   0.00000000   2.02939646
32 1 Fe  10.04500000   0.00000000   2.02939646
9 1 Fe   0.00000000   4.05879292   0.00000000
10 1 Fe   2.87000000   4.05879292   0.00000000
13 1 Fe   1.43500000   6.08818939   0.00000000
14 1 Fe   4.30500000   6.08818939   0.00000000
21 1 Fe   1.43500000   4.05879292   2.02939646
22 1 Fe   4.30500000   4.05879292   2.02939646
25 1 Fe   0.00000000   6.08818939   2.02939646
26 1 Fe   2.87000000   6.08818939   2.02939646
33 1 Fe   0.18348153   8.06591964   4.13183202
46 1 Fe   4.37485079   6.31664252   3.98041620
11 1 Fe   5.74000000   4.05879292   0.00000000
12 1 Fe   8.61000000   4.05879292   0.00000000
15 1 Fe   7.17500000   6.08818939   0.00000000
16 1 Fe  10.04500000   6.08818939   0.00000000
23 1 Fe   7.17500000   4.05879292   2.02939646
24 1 Fe  10.04500000   4.05879292   2.02939646
27 1 Fe   5.74000000   6.08818939   2.02939646
28 1 Fe   8.61000000   6.08818939   2.02939646
44 1 Fe   8.58116721   4.18466652   4.09123732
47 1 Fe   7.20917039   6.24506305   3.97279328
37 1 Fe   1.41968589   2.20013199   4.11357685
35 1 Fe   5.75093342   0.10934508   4.21096098
38 1 Fe   4.31200053   2.27179653   4.13819414
50 1 Fe   2.77173752   2.10357220   6.17273208
62 1 Fe   4.30962974   0.13709782   5.99724231
61 1 Fe   1.36329732   0.16996699   6.35239930
34 1 Fe   2.72969196   0.06150679   4.03771826
42 1 Fe   2.89038588   4.14784527   3.96474338
39 1 Fe   7.09904306   2.09648442   4.07938416
40 1 Fe   9.94339427   2.32844046   3.98981127
36 1 Fe   8.65375435   0.08885914   4.18440719
49 1 Fe  11.49779403   2.04822519   6.16305171
51 1 Fe   5.69587338   2.26207393   6.17371265
52 1 Fe   8.67353358   2.15286954   6.05451300
63 1 Fe   7.25891489   0.12232606   6.27397493
64 1 Fe  10.01425563   0.12805524   6.26612976
55 1 Fe   7.20145616   4.13930362   6.11947743
41 1 Fe   0.03554938   4.10729002   4.11618133
53 1 Fe   1.45161421   4.13628288   6.23747782
54 1 Fe   4.41754705   4.21759113   6.11672738
45 1 Fe   1.34333550   6.06513100   3.88096331
58 1 Fe   2.82596920   6.26113878   6.24710198
57 1 Fe   0.13933080   6.10102676   6.19889355
91 2 N   4.12182728   4.16001899   8.14026349
48 1 Fe  10.06707727   6.10613601   4.20164495
43 1 Fe   5.74021049   4.15975942   4.11464766
59 1 Fe   5.86109106   6.26375480   6.02092029
56 1 Fe  10.01459583   4.14432873   6.30292501
60 1 Fe   8.57742364   6.18313429   6.14840301
74 1 Fe   2.40992618   4.11696735   8.42540434
69 1 Fe   1.38915959   1.94754178   8.04137186
70 1 Fe   4.23205765   2.26124102   8.23133055
86 3 H   2.67574834   2.48060558   9.10758922
90 3 H   0.12991128   2.88388649   9.18287073
66 1 Fe   3.03720889   0.06839370   8.10507412
89 3 H   1.34980671   0.59243879   9.19062234
83 3 H   5.42130860   1.34402614   8.93161984
71 1 Fe   6.96844806   1.89004518   8.38479346
72 1 Fe  10.15595013   2.00526575   8.21800576
92 2 N   8.54757214   1.87642070   9.09255363
73 1 Fe  11.43560990   3.94838228   8.08701736
76 1 Fe   8.75299759   3.78766775   8.49741305
75 1 Fe   5.96159901   4.07808346   8.06781534
67 1 Fe   5.68460035   8.04994740   8.30618073
78 1 Fe   4.40679702   6.00446769   8.08055207
77 1 Fe   1.41376064   6.09049739   8.29439791
81 3 H   0.84410022   4.87148879   9.26546113
85 3 H   4.43660851   7.21727130   9.18191354
68 1 Fe   8.73079756   8.13005618   8.35560638
65 1 Fe  11.55713920   8.01626735   8.12857214
80 1 Fe   9.95144056   5.90812366   8.13102812
79 1 Fe   7.05994874   6.03667920   8.12041229
87 3 H  10.19016522   7.49246252   9.32925826
88 3 H   7.42898263   4.42811347   9.23244302
84 3 H   7.22235678   7.37357429   9.14121476
82 3 H  10.02656957   4.23305070   9.15685560
ITEM: TIMESTEP
500210
ITEM: NUMBER OF ATOMS
92
ITEM: BOX BOUNDS pp pp ff
0.0000000000000000e+00 1.1480000000000000e+01
0.0000000000000000e+00 8.1175858480215659e+00
0.0000000000000000e+00 2.0117585848021569e+01
ITEM: ATOMS id type element x y z
1 1 Fe   0.00000000   0.00000000   0.00000000
2 1 Fe   2.87000000   0.00000000   0.00000000
5 1 Fe   1.43500000   2.02939646   0.00000000
6 1 Fe   4.30500000   2.02939646   0.00000000
17 1 Fe   0.00000000   2.02939646   2.02939646
18 1 Fe   2.87000000   2.02939646   2.02939646
29 1 Fe   1.43500000   0.00000000   2.02939646
30 1 Fe   4.30500000   0.00000000   2.02939646
3 1 Fe   5.74000000   0.00000000   0.00000000
4 1 Fe   8.61000000   0.00000000   0.00000000
7 1 Fe   7.17500000   2.02939646   0.00000000
8 1 Fe  10.04500000   2.02939646   0.00000000
19 1 Fe   5.74000000   2.02939646   2.02939646
20 1 Fe   8.61000000   2.02939646   2.02939646
31 1 Fe   7.17500000   0.00000000   2.02939646
32 1 Fe  10.04500000   0.00000000   2.02939646
9 1 Fe   0.00000000   4.05879292   0.00000000
10 1 Fe   2.87000000   4.05879292   0.00000000
13 1 Fe   1.43500000   6.08818939   0.00000000
14 1 Fe   4.30500000   6.08818939   0.00000000
21 1 Fe   1.43500000   4.05879292   2.02939646
22 1 Fe   4.30500000   4.05879292   2.02939646
25 1 Fe   0.00000000   6.08818939   2.02939646
26 1 Fe   2.87000000   6.08818939   2.02939646
33 1 Fe   0.17529606   8.07830447   4.16573207
46 1 Fe   4.38308043   6.29760112   3.99913201
11 1 Fe   5.74000000   4.05879292   0.00000000
12 1 Fe   8.61000000   4.05879292   0.00000000
15 1 Fe   7.17500000   6.08818939   0.00000000
16 1 Fe  10.04500000   6.08818939   0.00000000
23 1 Fe   7.17500000   4.05879292   2.02939646
24 1 Fe  10.04500000   4.05879292   2.02939646
27 1 Fe   5.74000000   6.08818939   2.02939646
28 1 Fe   8.61000000   6.08818939   2.02939646
44 1 Fe   8.59796520   4.16589576   4.13363662
47 1 Fe   7.20674590   6.26969308   3.98396386
37 1 Fe   1.43317139   2.20816547   4.10732783
35 1 Fe   5.76770775   0.07729658   4.22586221
38 1 Fe   4.29872137   2.26341552   4.14870724
50 1 Fe   2.78528173   2.12632290   6.18533045
62 1 Fe   4.28866050   0.10990513   5.99098409
61 1 Fe   1.36299792   0.17781224   6.32191911
34 1 Fe   2.72266056   0.06331597   4.02060181
42 1 Fe   2.87698047   4.17477414   3.96637153
39 1 Fe   7.12365860   2.09518545   4.06398312
40 1 Fe   9.98495049   2.34417392   3.98801439
36 1 Fe   8.65297925   0.10325969   4.20321504
49 1 Fe  11.52691552   2.03959471   6.17040334
51 1 Fe   5.68301650   2.24855789   6.16895206
52 1 Fe   8.67898821   2.17034039   6.06707707
63 1 Fe   7.27512914   0.12070780   6.29633517
64 1 Fe  10.03726381   0.13202356   6.29044954