(written by ASE)

146 atoms
4 atom types

0.0                  11.372  xlo xhi
0.0      12.061827473480129  ylo yhi
0.0      25.051522894566773  zlo zhi

Atoms # atomic

     1   3                       0                       0                       0
     2   4                  1.4215      2.0103045789133547                       0
     3   3                       0      2.0103045789133547      2.0103045789133525
     4   4                  1.4215                       0      2.0103045789133525
     5   3   0.0002419622715659589  -0.0019132802446567591      4.0188842399941951
     6   4       1.420937712470759      2.0092917477930197      4.0209234051593032
     7   3 -0.00090802407552024523      2.0088922752120193      6.0323793855089836
     8   4      1.4212742236995133  6.7528204687850106e-05      6.0294889885538501
     9   3 -0.00054438272452474374  0.00011092258970984754      8.0400673220759948
    10   4      1.4218756980183456       2.009703940223436      8.0409266219036244
    11   3 -0.00060170661222733104      2.0121568570978638      10.051509397342025
    12   4       1.420442289071044  0.00082254491210326968      10.050302050916798
    13   3                       0      4.0206091578267102                       0
    14   4                  1.4215      6.0309137367400645                       0
    15   3                       0      6.0309137367400645      2.0103045789133525
    16   4                  1.4215      4.0206091578267102      2.0103045789133525
    17   3  0.00034361828956847718      4.0188461176713464      4.0209332417961026
    18   4      1.4211149177195836      6.0302368147397596      4.0212208341155478
    19   3   0.0010309995224958811      6.0318450168591804      6.0300745192168383
    20   4       1.421190787624149      4.0209404212581132      6.0318892818671852
    21   3 -0.00047917423784476999      4.0204234988500458      8.0401119806794092
    22   4      1.4203037933759191      6.0317262625624579      8.0425745556819876
    23   3 -7.2010121580579843e-05      6.0319172696379573      10.051884530591812
    24   4      1.4208548802453951      4.0209705534322175      10.053060931133233
    25   3                       0      8.0412183156534187                       0
    26   4                  1.4215      10.051522894566773                       0
    27   3                       0      10.051522894566773      2.0103045789133525
    28   4                  1.4215      8.0412183156534187      2.0103045789133525
    29   3  -0.0008084936028933781      8.0407165586098337      4.0215245599444103
    30   4      1.4218287511096594      10.050993134363006       4.021122425259823
    31   3  9.7077549348087493e-05      10.052491539557305      6.0302116836461837
    32   4      1.4211723378534022      8.0408262075002863      6.0294502217919304
    33   3  0.00029612027706462155      8.0414793709255985      8.0412234291100582
    34   4      1.4212654128666249      10.050107523824723      8.0407976703306474
    35   3 -0.00034271451652716136      10.050720617297552      10.051361608855101
    36   4      1.4219040508568144      8.0431045015546285      10.051697472379599
    37   3      2.8429999999999995                       0                       0
    38   4                  4.2645      2.0103045789133547                       0
    39   3      2.8429999999999995      2.0103045789133547      2.0103045789133525
    40   4                  4.2645                       0      2.0103045789133525
    41   3      2.8437910319470436 -0.00090938745479619669      4.0220119521376443
    42   4      4.2630981489372077      2.0108914360071544       4.022799613452519
    43   3      2.8420094636748692      2.0097382811837514      6.0310133881051495
    44   4      4.2639965243458837  -0.0015506634310656383      6.0309822997148697
    45   3      2.8419376962862737  0.00047359243063514099      8.0402988914191837
    46   4       4.266049934405018      2.0095213256210185      8.0408962541372091
    47   3      2.8438135172173697      2.0090737145969206      10.051750354501372
    48   4      4.2658071427542827  -0.0016074832345595801      10.051707528425299
    49   3      2.8429999999999995      4.0206091578267102                       0
    50   4                  4.2645      6.0309137367400645                       0
    51   3      2.8429999999999995      6.0309137367400645      2.0103045789133525
    52   4                  4.2645      4.0206091578267102      2.0103045789133525
    53   3      2.8448657745111445      4.0210829907476215      4.0194178543295047
    54   4      4.2651565536086338      6.0299390550698373      4.0213962424304501
    55   3      2.8441585955790072      6.0300930544217133      6.0318771128693065
    56   4      4.2649127809269363       4.021431217986704       6.032810529722715
    57   3      2.8427546118839966      4.0198554216623519      8.0403288012237901
    58   4      4.2636841897150344       6.030836635030651      8.0415594676282343
    59   3      2.8432766907993301      6.0317409199891001      10.051535896458645
    60   4      4.2659535340771573      4.0203445009934713      10.054243063733358
    61   3      2.8429999999999995      8.0412183156534187                       0
    62   4                  4.2645      10.051522894566773                       0
    63   3      2.8429999999999995      10.051522894566773      2.0103045789133525
    64   4                  4.2645      8.0412183156534187      2.0103045789133525
    65   3      2.8432140937441299      8.0399725768747068       4.020782338752559
    66   4      4.2648853173797292      10.050639037130571      4.0207628829326527
    67   3      2.8430582087184457      10.050379924268942      6.0312715241004096
    68   4      4.2650607845263684      8.0423013668965933      6.0319675387920961
    69   3      2.8416223306320423      8.0402804906135028      8.0417333509206195
    70   4       4.265013785950913      10.052037942253079      8.0450710471440701
    71   3      2.8435708905106933      10.052658460206954      10.052476896330262
    72   4      4.2651513912513055      8.0409030464087792      10.052281863787261
    73   3      5.6859999999999991                       0                       0
    74   4      7.1074999999999999      2.0103045789133547                       0
    75   3      5.6859999999999991      2.0103045789133547      2.0103045789133525
    76   4      7.1074999999999999                       0      2.0103045789133525
    77   3      5.6852846962907408  0.00067959774893475568      4.0198787911949916
    78   4      7.1077164585895822      2.0103501507532582      4.0199575574791018
    79   3      5.6881439440893251       2.010938497935673      6.0288885941534049
    80   4      7.1076864543147682 -0.00066178646476610628      6.0317661700748584
    81   3      5.6852074792615674 -0.00011473644146609023      8.0417233029323949
    82   4      7.1083657551941704       2.009104282506299      8.0408838144175743
    83   3      5.6855250546888394      2.0096512496807803      10.053288348807047
    84   4      7.1079049817109601  -0.0012608839543348088      10.052440756513819
    85   3      5.6859999999999991      4.0206091578267102                       0
    86   4      7.1074999999999999      6.0309137367400645                       0
    87   3      5.6859999999999991      6.0309137367400645      2.0103045789133525
    88   4      7.1074999999999999      4.0206091578267102      2.0103045789133525
    89   3      5.6857474318486076      4.0193613746447445      4.0222415691306388
    90   4      7.1060698586220381      6.0304736922533673      4.0207398984039946
    91   3      5.6874412732890658      6.0294778745888848      6.0320769004922168
    92   4      7.1075102330610198      4.0196276491756624      6.0313758402143263
    93   3      5.6861990596955732       4.020008940949551      8.0412881177384055
    94   4       7.107114686403138      6.0310272540853154      8.0418804463279336
    95   3      5.6875860168161445      6.0296759212412381      10.053655927941424
    96   4      7.1055479122004774      4.0204573727316735       10.05211121177325
    97   3      5.6859999999999991      8.0412183156534187                       0
    98   4      7.1074999999999999      10.051522894566773                       0
    99   3      5.6859999999999991      10.051522894566773      2.0103045789133525
   100   4      7.1074999999999999      8.0412183156534187      2.0103045789133525
   101   3      5.6851710049890789      8.0406581346132224      4.0213564514318314
   102   4      7.1081103702654334      10.051501992972808      4.0207264852100169
   103   3      5.6872776648957881      10.050931323177936      6.0314608341212317
   104   4      7.1072978073475657      8.0410006344501923      6.0320125135920479
   105   3      5.6868254163489871      8.0420318252894187      8.0425237944605676
   106   4      7.1075210038416321      10.052204847538068      8.0409080488968225
   107   3      5.6863241663524882      10.051392751512406      10.051619890531757
   108   4      7.1080951570254367      8.0404000949701846      10.053615281842452
   109   3      8.5289999999999999                       0                       0
   110   4      9.9504999999999999      2.0103045789133547                       0
   111   3      8.5289999999999999      2.0103045789133547      2.0103045789133525
   112   4      9.9504999999999999                       0      2.0103045789133525
   113   3       8.528174502803207 -0.00032138584165288268       4.021022089280982
   114   4      9.9499362754471967      2.0094823585177886      4.0208528450381991
   115   3      8.5292449665711079      2.0097976357379834      6.0304426984344426
   116   4      9.9507320499373559   -0.001448084341495094      6.0295062729656861
   117   3      8.5282815557787472 -0.00021344715170960082      8.0415292232190119
   118   4      9.9519753562169502      2.0111622385365568      8.0410583771234538
   119   3      8.5289809837920956      2.0093020495487166      10.051504381430773
   120   4      9.9502113413610775   0.0003227185603381216      10.050695663623216
   121   3      8.5289999999999999      4.0206091578267102                       0
   122   4      9.9504999999999999      6.0309137367400645                       0
   123   3      8.5289999999999999      6.0309137367400645      2.0103045789133525
   124   4      9.9504999999999999      4.0206091578267102      2.0103045789133525
   125   3      8.5304511436077952      4.0215684286527944      4.0227623402842196
   126   4      9.9497326524371097      6.0317860573767854      4.0207924998324476
   127   3       8.531189802933218      6.0301054384547106      6.0300740148978811
   128   4      9.9499006073545555      4.0184852621024003      6.0303879817183823
   129   3      8.5282408673384467      4.0207595516131853       8.041560071629192
   130   4       9.952376170839214      6.0318641605782499      8.0406414119977541
   131   3      8.5281015853286508      6.0314056559115707      10.050202661359744
   132   4      9.9523314587658547       4.021788597947431      10.051053718914662
   133   3      8.5289999999999999      8.0412183156534187                       0
   134   4      9.9504999999999999      10.051522894566773                       0
   135   3      8.5289999999999999      10.051522894566773      2.0103045789133525
   136   4      9.9504999999999999      8.0412183156534187      2.0103045789133525
   137   3      8.5291202956317118      8.0417327544874766      4.0213207727047973
   138   4      9.9493753579081616      10.049988780396037      4.0218868346486065
   139   3      8.5293323140119792      10.050774408030216      6.0324648887155838
   140   4      9.9506156746342924      8.0423976128374832      6.0309812552214739
   141   3      8.5310607479248812       8.042973656495862      8.0409693515049359
   142   4      9.9514715709509538      10.052168270516358      8.0425869472109479
   143   3      8.5280350765394193      10.052208946026772      10.052581319053617
   144   4       9.948741260513577      8.0400350571407522      10.049483662389006
   145   2 -0.00026940683444480115  0.00071754225579588138      11.253025251618862
   146   2      1.2000740947804198      2.4016286155455706       11.25014279310855
