52
Lattice="10.638 0.0 0.0 0.0 10.03 0.0 0.0 0.0 30.0" Properties=species:S:1:pos:R:3:forces:R:3 energy=-63896.085669114 frame=358 step=0 target_atoms="7 2 3 0 1 14 18 37 35 10 11 8 24 4 5" pbc="T T T"
C       10.10120148       8.85908527       6.36401401       0.63702709      -1.93865790      -1.91466239
O       10.25309494       7.67545147       5.79497234      -0.24741494       1.74565589       0.93009021
O       10.33039804       9.98038074       5.82936495      -0.06003625      -0.08244016       0.31307864
H        9.73439261       8.83633837       7.38371399      -0.12231413       0.00422216       0.62702454
Cu      10.64780147       0.03813789       3.86070886       0.02861115      -0.02139611       0.02820282
Cu      -0.02443252       2.54423217       3.77476649      -0.00997865       0.01449579       0.00566563
Cu      10.65885182       4.99972542       3.77322029      -0.01697963       0.02506655       0.00770083
Cu      10.66593786       7.48739008       3.86433441      -0.02641755       0.05656249       0.12702379
Cu       3.51392093      10.02181441       3.78755579      -0.00738025       0.00642024       0.00081294
Cu       3.53407168       2.49274946       3.78990994      -0.03822540       0.00128061       0.00275208
Cu       3.52954564       5.01390488       3.79097448      -0.01938096       0.00094751       0.00385899
Cu       3.51686037       7.52961190       3.78760256      -0.00475208       0.00423564       0.00347545
Cu       7.06013002      -0.01771816       3.78201772      -0.01322985       0.00150382      -0.00243166
Cu       7.05604514       2.49384659       3.78638118      -0.00492569      -0.00159303      -0.00132844
Cu       7.05517788       5.01340298       3.78573052      -0.00379808      -0.00186633      -0.00263136
Cu       7.05840076       7.52604860       3.78420940      -0.00573500       0.00222874       0.00470071
Cu       1.75130370       1.24962037       2.58200831      -0.01331641       0.00808306       0.00626825
Cu       1.79390211       3.75246125       2.58005200      -0.01515315       0.00733895       0.00800985
Cu       1.77625736       6.27279062       2.57691445      -0.00871463       0.00782040      -0.00063893
Cu       1.74334543       8.78312574       2.58154830       0.00339524       0.01011465      -0.00597702
Cu       5.29130594       1.23868445       2.58637205      -0.01378120       0.00583637       0.00241450
Cu       5.29219319       3.75391394       2.58742214      -0.01262297      -0.00211870       0.00532144
Cu       5.28825779       6.27159055       2.58818583      -0.00953863      -0.00291302       0.00433640
Cu       5.28618510       8.77907746       2.58750070      -0.01097436       0.00050007       0.00126882
Cu       8.83630140       1.24120771       2.58573990      -0.00473212      -0.00243220       0.00908174
Cu       8.82988963       3.75810652       2.59039256      -0.00616640       0.00354243       0.00050646
Cu       8.84559941       6.26723753       2.58975773      -0.01299469       0.01103670      -0.00419997
Cu       8.87603305       8.76794775       2.59035436      -0.02004979       0.02729948      -0.00064921
Cu      -0.01912120      -0.00047989       1.24399196      -0.00783596       0.00634613       0.00425069
Cu      -0.01794260       2.49807969       1.20736358      -0.00507356       0.00508930       0.02669653
Cu      -0.01321654       5.01446095       1.20970545      -0.00341369       0.00206237       0.03149646
Cu      -0.01108804       7.52475107       1.24423729      -0.00963010       0.00365541       0.00828481
Cu       3.52985964      10.02188371       1.17765950      -0.00271179       0.01166725      -0.01242282
Cu       3.54573827       2.49645966       1.17253721      -0.01926534       0.00291015      -0.00056101
Cu       3.54742353       5.01380271       1.17183149      -0.01028345       0.00012555       0.00129490
Cu       3.53861228       7.52929001       1.17625596      -0.00783849       0.00185257      -0.00132780
Cu       7.08391870      -0.01342073       1.18653339      -0.04182784      -0.00008517      -0.01273670
Cu       7.07359713       2.49727642       1.18061449      -0.00420180      -0.00037355      -0.00538722
Cu       7.07437800       5.01389405       1.18256623      -0.00721270      -0.00126123      -0.00310038
Cu       7.08159913       7.52815186       1.21453264      -0.03057398      -0.00199328       0.00852457
Cu       1.77300000       1.25370032       0.00000000      -0.14306875      -0.08523278      -0.04338048
Cu       1.77300000       3.76110097       0.00000000      -0.07932675      -0.07985882       0.01419169
Cu       1.77300000       6.26850162       0.00000000      -0.11973232       0.07772983      -0.03422817
Cu       1.77300000       8.77590226       0.00000000      -0.20737705       0.06230653      -0.05664367
Cu       5.31900000       1.25370032       0.00000000      -0.03450946      -0.11564526      -0.10114213
Cu       5.31900000       3.76110097       0.00000000      -0.03079852      -0.08051638      -0.12641031
Cu       5.31900000       6.26850162       0.00000000       0.00011688       0.10131370      -0.07667004
Cu       5.31900000       8.77590226       0.00000000      -0.01566739       0.05467647      -0.07849067
Cu       8.86500000       1.25370032       0.00000000      -0.02159357      -0.10144907      -0.03857672
Cu       8.86500000       3.76110097       0.00000000      -0.05883685      -0.06937880       0.01425628
Cu       8.86500000       6.26850162       0.00000000      -0.01992743       0.10477091       0.01445272
Cu       8.86500000       8.77590226       0.00000000       0.05151293       0.03393672      -0.00953698
52
Lattice="10.638 0.0 0.0 0.0 10.03 0.0 0.0 0.0 30.0" Properties=species:S:1:pos:R:3:forces:R:3 energy=-63889.71624336289 frame=6483 step=1 target_atoms="50 26 6 7 2 1 0 3" pbc="T T T"
C        9.30551983       7.64185231       7.57418081      -2.32178979      -0.35734386      -0.75998177
O       10.48813912       7.49139370       7.61758499      -1.91483968       0.55598750       0.16634519
O        8.08462263       7.72459547       7.46090363       4.22035523      -0.07995026       0.51187071
H       10.13062473       6.09265162       4.70597990       0.20860834      -0.03078569      -0.86308556
Cu      10.50550329      -0.21383909       3.44333644       0.85128175       1.31071699       0.78078192
Cu      -0.11897345       2.35603419       3.40455289       0.42594618       0.19964304      -0.01947277
Cu      11.08767511       4.91617800       3.51017848      -1.18988109       0.95453003       1.45626709
Cu      10.70288070       7.49329988       3.84291714       0.57391570      -0.71501610       0.29508015
Cu       3.30306617       9.79487462       3.97043119       0.10084049       0.21700798      -0.74724802
Cu       3.35362270       2.53780939       3.72404956      -0.40860595      -0.39789855      -0.45417318
Cu       3.13969585       4.92638539       3.29472668      -0.43255993      -0.25054570       1.05289512
Cu       2.93055354       7.34793811       3.73936623       0.19027992       0.02574647      -0.20719396
Cu       6.72961766      -0.11141845       3.71898155       1.30563209       0.05311475       0.84486607
Cu       7.32387520       2.40622860       3.92767807      -0.32238870       0.68780732       0.17660189
Cu       7.04485756       4.86780412       4.01037061       0.75921962       0.52555621      -0.32367382
Cu       7.28893756       7.64197795       3.91353463      -0.30568889      -1.08752940       0.69457854
Cu       1.78072161       1.05474667       2.37946214      -0.18704230       0.83383276       0.05613158
Cu       1.56336490       3.67589935       2.08050074       0.83824448      -1.53979433      -1.24857529
Cu       1.64834063       6.23030293       1.91160459       0.01657851       0.01492478       0.13345298
Cu       1.54272881       8.68163714       2.22606690       0.81589650      -0.35617980       0.29961535
Cu       5.37053209       1.42120703       2.85729626      -1.36172824      -1.10123202      -0.56060296
Cu       5.36599888       3.65301770       2.88520844      -0.81819139       0.27412981       0.04322420
Cu       5.11247552       6.01171918       2.95383430       0.86441633       0.78684714       0.17263055
Cu       5.21921714       8.40696319       2.79167609      -0.68050038       0.65148933       0.28049046
Cu       8.66058454       1.09210330       2.65353891       0.41904676      -0.55884544      -0.61302777
Cu       8.80483545       3.38976045       1.90783972       0.05269368       0.58510341       1.38726597
Cu       9.05503549       6.18115416       2.86828921      -0.71857622      -0.82697366      -0.36163340
Cu       8.86046698       8.63694870       2.43920459       0.01005754      -0.38879134      -0.42408531
Cu       0.01873579      -0.02425842       0.89235697       0.27278280       0.74891407      -0.10862504
Cu      -0.02680270       2.52025473       0.51174173       0.22309220      -0.28916602      -0.10504447
Cu      -0.21270534       4.99805664       0.84067289      -0.13445230       0.24191409      -0.28581410
Cu      -0.04203718       7.60631364       0.80475455      -0.06839737      -0.96257714      -0.47088614
Cu       3.60582790       9.78920514       1.41710202       0.60966305      -0.28894631      -0.05107963
Cu       3.66933713       2.06837251       1.04419278      -1.03042631       1.12078922       0.60376705
Cu       3.73883974       4.77489998       0.99587065      -0.07616177       0.20669791      -0.37376581
Cu       3.75902060       7.26243401       1.26475217       0.17834250      -0.63655178      -0.34610835
Cu       7.16748018      -0.17757281       1.30284036      -1.18956911      -0.05888163      -0.53561074
Cu       6.72654570       2.29406566       0.94651528       0.44429856      -0.20987414       0.91851654
Cu       6.76387506       4.86191257       1.45608677       0.59765943      -0.28481980      -1.02337191
Cu       6.99903281       7.19425117       1.61128777      -0.07824770       0.24510045      -0.94059451
Cu       1.85640975       1.02970308      -0.41707080       0.27752291      -0.02962034       0.73897842
Cu       2.01971922       3.58534165      -0.43516267       0.27026757       0.06408961       0.52745225
Cu       1.82036866       6.16204143      -0.47063373       0.01779942      -0.32176682       0.26984318
Cu       2.45533375       8.51861472      -0.21172290      -0.72228607       0.28128281      -0.26625467
Cu       5.21568339       0.85005051      -0.19017076       0.18354619      -0.20159846      -0.25867317
Cu       5.09623173       3.31801588      -0.30367739       0.15762634       0.94792374      -0.83765094
Cu       5.47873709       6.05704633      -0.39751158       0.12993854      -0.11414753       0.69171727
Cu       5.50799229       8.57258456       0.07525556      -0.22653200      -0.68862192       0.16559478
Cu       8.67392706       1.16564639      -0.07590377      -0.00524639       0.66486614       0.13486055
Cu       8.29965955       3.55220216      -0.32081928       0.18260246       0.93133388      -0.68573115
Cu       8.56038307       6.43287348      -0.17084479      -0.20392338      -0.46061421       0.48464656
Cu       8.88686984       8.92655452      -0.19402482      -0.71645233      -1.14516903      -0.21402749
52
Lattice="10.638 0.0 0.0 0.0 10.03 0.0 0.0 0.0 30.0" Properties=species:S:1:pos:R:3:forces:R:3 energy=-63890.98331963353 frame=4982 step=2 target_atoms="4 5 6 14 15 7 2 3" pbc="T T T"
C        9.15543197       7.42787091       6.71814729       1.09014034       0.44343558       0.61094959
O       10.22799693       7.07771453       7.01181860       0.73438065      -0.87776212      -0.02869360
O        8.12840726       7.92563666       6.50749544      -1.86176418       0.39213296      -0.35355819
H        9.29086883       5.43978964       4.14258929      -0.35084293       0.01606720      -0.17110946
Cu      10.62499629       0.30838148       4.10040852      -0.24959177      -0.32893932      -0.95283622
Cu      -0.04079924       2.78382688       3.41981753       0.47692879      -1.05695310       0.47234439
Cu      10.80569587       5.09389233       3.70529086       0.35372162       0.40670950      -0.45164281
Cu      10.70699191       7.58034584       3.66083004       0.45151862      -0.21918612       0.15366331
Cu       3.70995898      10.15246860       4.02255143      -0.30946452      -0.66031577      -0.43077957
Cu       3.34809466       2.42579058       3.64653917       1.42083893       1.32985935       0.41961359
Cu       3.27235496       4.94045320       3.88559488       0.15563280      -1.00861788      -0.55048790
Cu       3.60547989       7.21360315       4.05751680      -0.01438511       1.28712562      -0.37891063
Cu       7.05985897      -0.06477211       3.92388310      -0.08751383       0.73436723       0.03095864
Cu       6.97335253       2.48076798       3.98025091       0.00244224       0.46001031      -0.39944205
Cu       7.03423674       5.12982141       3.77631844      -0.15550006      -0.26686272       0.33806109
Cu       7.09996759       7.61452324       3.98696052      -0.75095058      -0.81089999      -0.23888561
Cu       1.73362900       1.33248995       2.66282633      -0.87511821      -1.38563581      -1.02034936
Cu       1.71628260       3.77008918       2.06827298      -0.24087068      -0.08290493       1.07218804
Cu       1.94252806       6.32824569       2.46514500      -0.70692061      -0.14381482      -0.09887064
Cu       1.78224647       8.83921703       2.64252806       0.66538315      -0.04239700       0.38426838
Cu       5.42737142       1.20969216       2.56835166      -1.11144725       0.37349440       0.56676640
Cu       5.23747598       3.81253906       2.57964606       0.00796236      -0.79770198       0.33967422
Cu       5.29752717       6.17007043       2.52482241      -0.49870766       0.67724336       0.33006948
Cu       5.17748000       8.72142166       2.71607911       0.50256069      -0.37749710       0.35385502
Cu       8.72477051       1.42837170       2.59464025       0.23544170      -0.60024407       0.20474559
Cu       8.72210082       3.88385084       2.70131612      -0.20242629       0.13730144      -0.68268178
Cu       8.81075776       6.34674290       2.57750802       0.49047991      -0.73394465       0.14019018
Cu       8.85170894       8.67499920       2.84893025      -0.26609974       1.30251367      -0.70367765
Cu      -0.11113737      -0.19599614       1.50361785       0.13508996       0.47720288      -0.58629448
Cu       0.09120646       2.43774637       0.83184797      -0.12270430      -0.17321412       0.17879384
Cu       0.02610748       4.96396299       0.72917214      -0.35707988      -1.05900637       0.25288287
Cu       0.04679906       7.28640746       1.04984647      -0.16284513       0.87120112       0.04064817
Cu       3.53593393       9.84635938       1.27311399       0.01135241       0.61569727       0.15675696
Cu       3.58998923       2.36203463       1.08362477      -0.14313947       0.13312419       0.26886606
Cu       3.49973610       4.82860886       1.12514585       0.23628119       0.43167914      -0.32912554
Cu       3.59677817       7.49625084       1.23890053       0.07236395      -0.62208716      -0.54123091
Cu       6.99485310      -0.11912886       1.41192780       0.97155119      -0.01270809      -0.56046255
Cu       6.88962019       2.43842368       1.13440498       0.70668385      -0.08242390       0.03211132
Cu       7.03142957       4.96601749       1.08140916       0.32858517      -0.93229324       0.27305088
Cu       7.05627251       7.30242640       1.17913164      -0.24974527       0.82847997      -0.07166084
Cu       1.90300964       0.90735447      -0.01838167      -0.62125082       0.57716796      -0.02772241
Cu       1.97977298       3.54100002      -0.44329143      -0.17772127      -0.03378805       0.43222910
Cu       1.75164463       6.13525291      -0.35026400       0.65543784      -0.21843221       0.40181025
Cu       1.93950261       8.51697425      -0.26647044      -0.19512129       0.23160010       0.66168391
Cu       5.09367079       1.07180655      -0.17945404       0.44568682       0.53998103      -0.01102391
Cu       5.35354261       3.54593898      -0.29744452      -0.30205974       0.00362508       0.20714916
Cu       5.15206491       5.91812870      -0.00697937       0.30385740       1.26129277      -0.57081471
Cu       5.41720062       8.83799559       0.06698536      -0.13205623      -1.44932011      -0.24212760
Cu       8.84305039       1.15535438       0.13887596      -0.41756809      -0.56799015      -0.11596563
Cu       8.65214371       3.61551915      -0.23103790       0.26300723      -0.59951772       0.45041346
Cu       8.76124324       5.95320440      -0.34437266      -0.07371762       1.15289919       0.45196482
Cu       8.77629416       8.52866942       0.04479672       0.10036848       0.33908733       0.30747782
52
Lattice="10.638 0.0 0.0 0.0 10.03 0.0 0.0 0.0 30.0" Properties=species:S:1:pos:R:3:forces:R:3 energy=-63888.644203888696 frame=1067 step=3 target_atoms="46 9 4 50 12 15 7 3" pbc="T T T"
C       10.35272038       7.44945012       8.46548202      -3.27629216       2.95291977      -4.42692050
O        9.61506173       8.02129540       7.65119498       2.46612038      -2.21296483       3.26066476
O       11.12607429       6.93492863       9.15531057       0.77925762      -0.81044596       1.05068612
H        7.15127496       7.92633562       4.79667400       0.03623927       0.22324777      -0.86573390
Cu      10.09436174      -0.64252330       3.72546000      -0.07352911       1.19479977      -0.24654228
Cu      -0.21385766       2.11824594       3.85062128      -0.55083937       0.12120039       0.26599585
Cu      10.51543684       4.68486960       3.76386192       0.39597529      -0.29242412       0.35864480
Cu      11.03508978       7.29930869       4.18939563       0.19332682      -1.08813485      -0.13926940
Cu       2.96519028       9.83393924       3.72157241       0.53187416      -0.43888341      -0.56388751
Cu       2.73934452       2.21830213       4.23897773      -0.03011159      -1.86823788      -0.66979841
Cu       2.66973313       4.36450482       3.93044957      -0.04910373       2.29864536      -0.70450632
Cu       3.06437300       7.24123573       3.52336080      -0.14440976      -0.31776682       0.47299084
Cu       7.40888756      -0.62121676       3.84076640      -0.25849241      -0.29911361       0.31044901
Cu       7.13012196       2.16758416       4.29019386      -0.14135023      -0.81734500      -0.70537195
Cu       7.63059135       4.32044318       3.56753088      -0.20110230       0.84850872      -0.00648801
Cu       7.21276198       6.97287507       3.32500224       0.11466809      -0.28015955       0.24920388
Cu       1.26894924       0.98114018       2.49916902       0.31543831      -1.35506311      -0.72108539
Cu       1.27001397       3.24212601       2.17116325       0.24419750       0.94909683      -0.53805489
Cu       1.25394796       5.95072750       2.16219021       0.25773678      -0.05595554      -0.14313671
Cu       1.28131967       8.41717404       2.34286351       0.26493014       0.76239700      -0.89227580
Cu       5.30708633       0.79518811       2.97904141      -0.04612282       0.20685141       0.39893023
Cu       4.95279962       3.26095645       3.37560558       0.84619450      -0.39264160       0.76479204
Cu       4.97641952       5.54722531       3.63150042       0.42922137       1.06385112      -0.17078942
Cu       5.31987779       8.36289453       2.69660598      -0.29368287      -0.11970176       0.35639923
Cu       8.53307601       1.02701884       2.41741702      -0.02868052       0.07348670      -0.02497801
Cu       9.17145156       3.32526939       2.02201304      -0.28991445       0.12287444       0.36863877
Cu       9.18621101       5.79249835       2.18560038      -0.56030633       0.98309939      -0.35040866
Cu       8.71764348       8.68387769       1.91629845       0.33760028      -0.70615657      -0.67219115
Cu      -0.01216117      -0.31057179       0.46773955       0.58420527       0.59315197       0.53785720
Cu      -0.43460862       2.24158492       0.25349784       0.47711560      -0.70791449      -0.26650758
Cu      -0.11859983       4.65333652       0.46220760       0.29297581       0.26606932      -0.46506075
Cu      -0.30849128       7.32690849       0.37567429       0.22614849      -0.63103497       0.07553221
Cu       3.83671814       9.90269633       1.14959468       0.16866682      -0.76962530       1.39315262
Cu       3.84487597       2.34175331       1.60574036      -1.11982587      -0.40941715      -0.46719622
Cu       3.81892948       4.76319623       1.62138391      -0.67460187       0.71021472      -0.30830679
Cu       3.69393641       7.31926467       1.27134638      -0.66952432      -0.09192217      -0.71609792
Cu       6.54282306      -0.21197341       1.08532452       0.06861528       1.55887232      -0.31827382
Cu       6.50680772       2.47700874       1.35946359       0.07971103       0.24784534       0.68136052
Cu       6.55633878       5.13620221       1.55504255      -0.20098864       0.35640899      -0.18516546
Cu       6.91896312       7.64260385       0.62618120       0.06467992      -0.94157256       0.25165033
Cu       2.25136373       0.94036962      -0.05063271      -1.03679590       0.45242250      -0.06811436
Cu       2.41511609       3.35727560      -0.35420489       0.02700059       0.48744580       0.94961026
Cu       1.89468238       5.96185283      -0.29248890       0.26613524       0.06868801       0.69210793
Cu       2.22263723       8.47976781      -0.46514086      -0.14079532       0.10703260       0.72749502
Cu       4.85806168       1.48554910      -0.36666378       0.29162890      -0.50101064      -0.21675292
Cu       5.13313549       3.88918940      -0.22135683       0.18539736      -0.15301596       0.14537968
Cu       5.19846890       6.29859950      -0.25863389      -0.06048065      -0.45809415      -0.20804182
Cu       4.81888183       8.71530637      -0.63951053       0.33093358       0.00478635       0.24825677
Cu       7.71370389       1.60220102      -0.48440038       0.27629687      -0.58328665       0.32778703
Cu       7.98244080       4.05537104      -0.23530502       0.09987040      -0.25593357       0.52297434
Cu       8.24705296       6.40766778      -0.90441696       0.21482606       0.05994743       0.49468944
Cu       8.74423848       8.97563588      -0.77266870      -0.66265570      -0.19211703       0.58288799
52
Lattice="10.638 0.0 0.0 0.0 10.03 0.0 0.0 0.0 30.0" Properties=species:S:1:pos:R:3:forces:R:3 energy=-63889.88905039171 frame=1563 step=4 target_atoms="6 14 15 0 7 1 3 2" pbc="T T T"
C        9.20504593       6.96594930       6.41043441       0.25706057       0.75185488      -0.98785612
O        9.30032300       6.90752580       7.59922251       0.54572952      -0.38652128       2.14757675
O        8.13257700       6.97153829       5.72224298      -1.54327469      -0.09770238      -0.95500937
H       10.17901643       7.14136580       5.82488178       0.43734536      -0.08766080      -0.48766311
Cu      10.61452772      -0.23918703       3.74809848      -0.55820196      -0.31921065      -0.17764192
Cu      -0.15216185       2.40634003       3.67946627      -0.03087452      -0.49575613      -0.15689008
Cu      10.52368907       4.73722828       3.37810126       1.15688099       0.78980217       0.28448781
Cu      10.30048373       7.28769698       3.88495703       0.55457724       0.26343196      -0.67986986
Cu       3.75557465       9.89842450       3.85217386      -2.00009744       0.58621590       0.66819732
Cu       3.29865170       2.49444165       3.64451241       0.18076767      -0.46699703      -0.11350098
Cu       3.01260791       4.95392438       3.60445107       0.07304846      -0.98015733      -0.32673667
Cu       3.30853984       7.23261674       3.73676197      -0.20332329       1.19555009      -0.37498337
Cu       6.96391188      -0.02793231       3.94582006       0.14898821      -0.60030538      -0.63510412
Cu       7.39104667       2.27044588       3.70192277      -0.53745782       0.38651178       0.60380884
Cu       7.41464746       4.64778774       3.88560660      -0.48345991       0.76686784       0.24117311
Cu       7.47486788       7.53727307       3.98313475      -0.13329783      -0.15167714      -0.00040549
Cu       1.56059118       0.98948041       2.54359541       1.06545693      -0.05525492      -0.09676646
Cu       1.68134216       3.26580003       2.05721456       0.34871317       2.03397455       1.02036153
Cu       1.73840933       6.10828457       1.87096188      -0.31358137       0.40001312       1.11107250
Cu       1.71363652       8.55452489       2.29663092      -0.07714159      -0.06164616       0.57963200
Cu       5.22517373       1.22895255       2.67507725       0.30146531       0.47320374      -0.72266700
Cu       5.20035300       3.84171910       2.68487010       0.01009492      -0.99026045       0.15941283
Cu       5.41936599       6.18006003       3.17485258       0.20027168       0.22952377      -0.21460854
Cu       5.18266480       8.68308664       2.71917907       1.37690185      -1.04206616      -0.61018998
Cu       8.88181466       1.02299256       2.39754635       0.49788450       0.24936697      -0.16715216
Cu       8.79397923       3.67744655       2.26450884       0.88954904      -0.78015788      -0.46613371
Cu       8.76223057       6.14396642       2.43418544       0.13089263       0.33147253      -0.31216831
Cu       8.74407952       8.72771602       2.23223831       0.85554838      -0.55862714       0.60586147
Cu       0.01399193      -0.02862365       0.98036100      -0.33464825      -0.46730273      -0.49309636
Cu       0.05972146       2.42931341       0.76927665      -1.78162103      -0.14818542      -0.11602794
Cu      -0.17271893       5.12316812       0.89813307      -0.29457488      -1.44832363      -0.88558673
Cu      -0.25628830       7.43020193       0.89306228       0.27154220       0.62356013      -0.15277283
Cu       3.48368708       9.82020077       1.04213792       0.25667144       0.22767237       0.15134182
Cu       3.42964695       2.20859867       0.79036503       0.96475135       0.27099015       0.16751362
Cu       3.63116578       4.86186529       1.02846807       0.14839291      -1.19306663      -0.43166246
Cu       3.90316474       7.16643742       1.15549070      -0.97686661       0.53963987       0.54467215
Cu       6.95420448      -0.23311010       1.12918159       0.29346804       0.82575470       0.20330817
Cu       7.10212158       2.32896224       1.30613743      -0.96466553      -0.00419696      -0.89834976
Cu       6.92924336       4.96435693       1.40025295      -0.38717234      -0.76786839       0.33857825
Cu       6.90943093       7.45624234       1.27423680      -0.30881378      -0.21241229       0.66045395
Cu       1.69156144       1.27916546      -0.55024667      -0.02170809      -1.08624321       0.15782471
Cu       1.69151112       3.65995325      -0.44834063       0.26220779       0.40740169       0.24897094
Cu       1.97975076       6.01336604      -0.47994753      -0.11830026       0.67606695       0.07372271
Cu       1.73762392       8.62068603      -0.14461782       0.07527942      -0.22344371      -0.12835905
Cu       5.46335333       0.87674532      -0.25418745      -0.59168519       1.02530319       0.10317547
Cu       5.43749805       3.50193247      -0.13361736       0.00646465      -0.13808419       0.44070621
Cu       5.60050098       5.99362210      -0.14574915      -0.61342218       0.13746371      -0.80354419
Cu       5.23465421       8.52514161      -0.11129153       0.30469439       0.10321561      -0.56246342
Cu       8.75775257       1.39492131      -0.22136889      -0.23087484      -0.52254384       0.18111957
Cu       8.39494184       3.99541426      -0.33309220       0.19989508      -2.27476801       0.32015680
Cu       8.25731247       6.17464256      -0.19959322       0.52304048       1.89582998      -0.09977852
Cu       8.70072367       8.72395698      -0.42467508      -0.16628207       0.21995809       0.76366109
52
Lattice="10.638 0.0 0.0 0.0 10.03 0.0 0.0 0.0 30.0" Properties=species:S:1:pos:R:3:forces:R:3 energy=-63890.45948675551 frame=1467 step=5 target_atoms="1 6 26 0 15 7 2 3" pbc="T T T"
C        8.82870718       7.05148221       6.24962924       1.74909650      -0.87598077      -0.82587003
O        9.23686925       6.43600623       7.20598792       0.36197638      -0.20532400       1.06391642
O        7.67361031       7.42944937       5.95655619      -1.80281425       0.86477724      -1.30969993
H        9.66648903       7.18808169       5.39506398      -0.27185136       0.35514374       0.01170054
Cu      10.65257689       0.33912278       4.02314141      -0.09537541      -0.41371202      -0.83372831
Cu       0.06541927       2.79653322       3.49205968      -0.30901577      -0.82063120       0.19885137
Cu      10.87039454       5.16949825       3.59458469      -0.13849915      -0.17056117       0.01325361
Cu      10.91046422       7.67506486       3.76208661      -1.67704884      -0.64854029       0.93960412
Cu       3.55367321      10.04518465       3.96976876      -0.16577491       0.01731550      -0.59261143
Cu       3.42324451       2.47550599       3.68828885       0.52217698      -0.03453612      -0.23343120
Cu       3.31442246       4.84956300       3.91486631      -0.18742735      -0.33718684      -0.52235200
Cu       3.54872233       7.13886977       4.04831698       0.17257255       1.30448540      -0.06841144
Cu       7.12497401      -0.10485411       3.67281174       0.09015558       1.00250277       0.71869169
Cu       6.93853106       2.57492740       3.77106719      -0.17728049      -0.37531526      -0.25081107