146
Lattice="11.372 0.0 0.0 0.0 12.061827473480129 0.0 0.0 0.0 30.051522894566773" Properties=species:S:1:pos:R:3:bader_charges:R:1:net_charges:R:1:force_std_comp_max:R:1:force_module_std:R:1:forces_realative_errors:R:1:momenta:R:3:forces:R:3 target_atoms="-1 -2" energy=0.0 pbc="T T T"
Fe       0.00000000       0.00000000       0.00000000      15.84237385      -0.15762615       0.00148271       0.00145890       6.49282455       0.00000000       0.00000000       0.00000000      -0.00274230       0.00204334      -0.00876580
Co       1.42150000       2.01030458       0.00000000      17.19516563       0.19516563       0.00081062       0.00082377     575.18353271       0.00000000       0.00000000       0.00000000      -0.01756283       0.00162945       0.47348806
Fe       0.00000000       2.01030458       2.01030458      15.78838634      -0.21161366       0.00278491       0.00270893     176.99319458       0.00000000       0.00000000       0.00000000       0.00090830       0.03712003      -0.47801879
Co       1.42150000       0.00000000       2.01030458      17.16771317       0.16771317       0.00162980       0.00162247     193.35041809       0.00000000       0.00000000       0.00000000       0.07866523      -0.08248517      -0.29226190
Fe       0.04334409       0.01004132       4.03066675      15.80402756      -0.19597244       0.00186431       0.00054028    1190.35827637       0.00000000       0.00000000       0.00000000      -0.13945895       0.22479162      -0.58619350
Co       1.48585124       1.94663896       3.96986011      17.19735146       0.19735146       0.00402415       0.00383392     259.67770386       0.00000000       0.00000000       0.00000000      -0.94267315       0.30308351       0.10332854
Fe      11.30857409       2.15769551       6.07519117      15.81156445      -0.18843555       0.01160967       0.00944002     150.07952881       0.00000000       0.00000000       0.00000000       1.00581384      -0.39075977      -0.91800636
Co       1.38017612       0.03481692       6.08872004      17.19064140       0.19064140       0.00668705       0.00670133     260.20651245       0.00000000       0.00000000       0.00000000       1.02016068       0.05247496      -1.41317177
Fe       0.06428998       0.04405299       7.92648756      15.82562923      -0.17437077       0.01350211       0.01099928     153.90762329       0.00000000       0.00000000       0.00000000      -0.71146953      -0.09034318       1.53340364
Co       1.42118307       1.85804208       7.89865215      17.18641472       0.18641472       0.02041717       0.02501685      83.87094879       0.00000000       0.00000000       0.00000000       0.43610835       1.68706679       1.16867995
Fe       0.15075686       2.13977172      10.04784836      15.86484146      -0.13515854       0.02593268       0.01193842      71.85249329       0.00000000       0.00000000       0.00000000      -0.62642640       0.06708256      -0.58153313
Co       1.38853277       0.00125848      10.05493854      17.18845367       0.18845367       0.01692905       0.01330049      73.68150330       0.00000000       0.00000000       0.00000000      -0.05327514      -0.76514256      -0.60985303
Fe       0.00000000       4.02060916       0.00000000      15.84210205      -0.15789795       0.00117703       0.00098266      50.43565369       0.00000000       0.00000000       0.00000000      -0.04025234       0.00385263       0.02863836
Co       1.42150000       6.03091374       0.00000000      17.19605446       0.19605446       0.00096162       0.00094663     532.34204102       0.00000000       0.00000000       0.00000000       0.02450247      -0.00080698       0.50333470
Fe       0.00000000       6.03091374       2.01030458      15.78924274      -0.21075726       0.00118698       0.00104511     519.69799805       0.00000000       0.00000000       0.00000000       0.08784835      -0.03356728      -0.53493494
Co       1.42150000       4.02060916       2.01030458      17.17834473       0.17834473       0.00199185       0.00028567     771.42163086       0.00000000       0.00000000       0.00000000       0.20693702       0.06084426      -0.04510610
Fe       0.10561076       4.04577735       4.03280604      15.79919815      -0.20080185       0.00465709       0.00464404      76.39062500       0.00000000       0.00000000       0.00000000      -0.25480193      -0.15490292       0.19211823
Co       1.41156408       6.20098109       4.02370354      17.20775223       0.20775223       0.00586952       0.00433310     345.81066895       0.00000000       0.00000000       0.00000000       0.76120204      -1.28207493      -0.14869721
Fe       0.15717210       6.00043372       5.95262709      15.80159950      -0.19840050       0.03182197       0.02455925      70.52537537       0.00000000       0.00000000       0.00000000      -1.08833027       0.74333262       1.12361228
Co       1.49938407       4.03104611       6.20477367      17.21359634       0.21359634       0.01677755       0.01421886      64.15799713       0.00000000       0.00000000       0.00000000      -0.17272942       0.15651348      -0.88186073
Fe       0.16914571       4.30137891       8.05630602      15.79267693      -0.20732307       0.03221827       0.01132361     191.95321655       0.00000000       0.00000000       0.00000000      -1.11242557      -1.32626891       1.31404233
Co       1.63887010       6.17167082       8.16135780      17.03027916       0.03027916       0.05167200       0.00527363     186.70466614       0.00000000       0.00000000       0.00000000      -0.95837677      -0.03619573      -0.21103370
Fe      11.06440230       6.06235373      10.19132102      15.46780491      -0.53219509       0.15928601       0.16609743       9.41380501       0.00000000       0.00000000       0.00000000      -1.50002766       0.32956320      -0.25994635
Co       1.28863607       4.26289550      10.39493245      16.92933846      -0.07066154       0.06447304       0.06184483      19.05801392       0.00000000       0.00000000       0.00000000       0.49625206      -0.01822586      -1.06676054
Fe       0.00000000       8.04121832       0.00000000      15.84438324      -0.15561676       0.00053004       0.00026125     147.18118286       0.00000000       0.00000000       0.00000000       0.03808429      -0.00332222      -0.00405543
Co       1.42150000      10.05152289       0.00000000      17.19862938       0.19862938       0.00097038       0.00089799     553.92211914       0.00000000       0.00000000       0.00000000       0.02233724       0.00730733       0.49685758
Fe       0.00000000      10.05152289       2.01030458      15.78754139      -0.21245861       0.00216680       0.00223007     245.14437866       0.00000000       0.00000000       0.00000000       0.02498426       0.08269855      -0.53981799
Co       1.42150000       8.04121832       2.01030458      17.16275406       0.16275406       0.00134295       0.00100363     303.81756592       0.00000000       0.00000000       0.00000000       0.25478873       0.11832689      -0.11855606
Fe      11.36670467       8.07802395       3.96830129      15.80492210      -0.19507790       0.00397565       0.00290184     213.82034302       0.00000000       0.00000000       0.00000000       0.03080907       0.09241928       0.61275458
Co       1.44201896      10.07880723       4.00103106      17.20549011       0.20549011       0.00379831       0.00478761     155.47203064       0.00000000       0.00000000       0.00000000      -0.27411485      -0.67442930       0.15503353
Fe       0.09037634      10.18487857       6.00014713      15.79576683      -0.20423317       0.01818011       0.01074345     127.62370300       0.00000000       0.00000000       0.00000000      -0.82317489      -1.09345031       0.07989373
Co       1.47491902       8.06191904       6.12851109      17.15575981       0.15575981       0.02261721       0.02383405      19.38907433       0.00000000       0.00000000       0.00000000      -0.02624375       0.09682794      -0.45082790
Fe      11.23268848       8.28066023       7.93029867      15.79797935      -0.20202065       0.06358025       0.07525915      28.76878929       0.00000000       0.00000000       0.00000000       0.84457600      -1.66443038       1.09658945
Co       1.43836037      10.02333331       8.08981900      17.14009094       0.14009094       0.02153808       0.01103245     105.78050995       0.00000000       0.00000000       0.00000000       0.05087672       0.77263415       0.87256587
Fe       0.13421324       9.92974525      10.41548321      15.56627369      -0.43372631       0.07730969       0.02830915      35.21163940       0.00000000       0.00000000       0.00000000      -0.43379414      -0.11653177      -0.88614368
Co       1.60711329       7.98613617      10.09209179      16.73274231      -0.26725769       0.05957270       0.06193705      14.91522026       0.00000000       0.00000000       0.00000000      -0.22159547       0.88933682       0.08550779
Fe       2.84300000       0.00000000       0.00000000      15.84220505      -0.15779495       0.00087712       0.00056389     117.90736389       0.00000000       0.00000000       0.00000000      -0.03747899       0.00331862      -0.05480463
Co       4.26450000       2.01030458       0.00000000      17.19367218       0.19367218       0.00111336       0.00111962     424.88632202       0.00000000       0.00000000       0.00000000       0.00561328      -0.00844400       0.47560009
Fe       2.84300000       2.01030458       2.01030458      15.79154587      -0.20845413       0.00260024       0.00258546     281.92312622       0.00000000       0.00000000       0.00000000      -0.03335623       0.00970253      -0.72807026
Co       4.26450000       0.00000000       2.01030458      17.18189621       0.18189621       0.00153517       0.00113317     405.00344849       0.00000000       0.00000000       0.00000000      -0.13616277      -0.08059755      -0.43079636
Fe       2.88323652      11.91621138       4.01188852      15.80666161      -0.19333839       0.00386931       0.00175287     872.13366699       0.00000000       0.00000000       0.00000000      -0.57510072       1.40692985       0.16379137
Co       4.14965768       2.01319237       3.99685159      17.18160248       0.18160248       0.00361552       0.00245041     412.93029785       0.00000000       0.00000000       0.00000000       0.97775269       0.13748436       0.22117642
Fe       2.72899048       1.99609535       5.90585215      15.82737637      -0.17262363       0.00641420       0.00724730     214.02062988       0.00000000       0.00000000       0.00000000       1.06460059      -0.25573564       1.09864712
Co       4.27689686       0.01727140       6.03487360      17.20974350       0.20974350       0.00360916       0.00366465      82.57370758       0.00000000       0.00000000       0.00000000      -0.20301710      -0.10830269      -0.19649810
Fe       2.95883705      12.03869324       8.03154961      15.80033493      -0.19966507       0.00996328       0.01054727     102.29859924       0.00000000       0.00000000       0.00000000      -1.05523610      -0.01726356       0.22421996
Co       4.22880858       2.02662792       7.98693836      17.14093971       0.14093971       0.00656302       0.00364385     119.55343628       0.00000000       0.00000000       0.00000000       0.01969520      -0.14728783       0.40942633
Fe       2.70632975       1.87427878      10.00407321      15.84026814      -0.15973186       0.01917641       0.00957829     134.32273865       0.00000000       0.00000000       0.00000000       0.75295550       1.03523433       0.12679777
Co       4.20971806      12.03964213       9.97527196      17.23628807       0.23628807       0.00857789       0.00418712     147.50007629       0.00000000       0.00000000       0.00000000       0.50964642       0.32398832       0.12894937
Fe       2.84300000       4.02060916       0.00000000      15.84475231      -0.15524769       0.00092616       0.00085619      48.13105392       0.00000000       0.00000000       0.00000000       0.01750050      -0.01329101      -0.03485399
Co       4.26450000       6.03091374       0.00000000      17.19449425       0.19449425       0.00077241       0.00036680    1450.81115723       0.00000000       0.00000000       0.00000000      -0.00014345      -0.00447423       0.53213644
Fe       2.84300000       6.03091374       2.01030458      15.78597260      -0.21402740       0.00264867       0.00248170     131.59939575       0.00000000       0.00000000       0.00000000       0.03531278       0.05055680      -0.32070988
Co       4.26450000       4.02060916       2.01030458      17.17154312       0.17154312       0.00204570       0.00091209     184.77751160       0.00000000       0.00000000       0.00000000      -0.15799716       0.05202161       0.02697506
Fe       2.83332906       4.00232361       4.12055453      15.80271339      -0.19728661       0.00447398       0.00366779     291.89016724       0.00000000       0.00000000       0.00000000      -0.08535507       0.76984680      -0.73904532
Co       4.29819588       6.08933319       4.02561405      17.22182465       0.22182465       0.00422131       0.00253937     311.86157227       0.00000000       0.00000000       0.00000000      -0.17845500      -0.67696881       0.37014669
Fe       2.91586382       5.99680344       6.10273128      15.80905533      -0.19094467       0.01313523       0.00558043      88.93592834       0.00000000       0.00000000       0.00000000      -0.08141346       0.48250636       0.08123039
Co       4.16168102       3.91545755       6.11095879      17.17229843       0.17229843       0.00617135       0.00281661     433.65264893       0.00000000       0.00000000       0.00000000       0.81848264       0.89616168      -0.13706660
Fe       2.82308509       4.03794016       8.36577902      15.79876328      -0.20123672       0.03531883       0.02467483      35.57386398       0.00000000       0.00000000       0.00000000      -0.24623072      -0.17776103      -0.82270932
Co       4.32363583       6.08321578       8.10627836      17.12183952       0.12183952       0.01290543       0.01064317      48.21467209       0.00000000       0.00000000       0.00000000       0.26909024      -0.43579862      -0.02702900
Fe       3.15166343       6.07747475      10.17144402      15.69235516      -0.30764484       0.07419088       0.03731142      49.75201416       0.00000000       0.00000000       0.00000000      -1.07391357      -1.45863080       0.39947343
Co       4.41417214       3.90371033       9.97492146      17.21423531       0.21423531       0.02134150       0.01936535      59.92650223       0.00000000       0.00000000       0.00000000      -0.42436910       0.82273501       0.69950002
Fe       2.84300000       8.04121832       0.00000000      15.84281063      -0.15718937       0.00090450       0.00090096      44.41498566       0.00000000       0.00000000       0.00000000       0.03183213      -0.00161703       0.02417951
Co       4.26450000      10.05152289       0.00000000      17.19480705       0.19480705       0.00103590       0.00036161    1425.31738281       0.00000000       0.00000000       0.00000000      -0.01331653       0.01655118       0.51497275
Fe       2.84300000      10.05152289       2.01030458      15.78621292      -0.21378708       0.00121186       0.00058978     900.65045166       0.00000000       0.00000000       0.00000000       0.09321976      -0.20877755      -0.47945219
Co       4.26450000       8.04121832       2.01030458      17.16686440       0.16686440       0.00243623       0.00153161     118.20214081       0.00000000       0.00000000       0.00000000       0.15040752       0.04456571       0.09034209
Fe       2.97578295       8.01715416       4.11828569      15.81109428      -0.18890572       0.00520721       0.00293781     430.91900635       0.00000000       0.00000000       0.00000000      -1.20863795       0.35352099      -0.12968463
Co       4.19202188       9.99134747       4.12255205      17.20993996       0.20993996       0.00435574       0.00168156     732.82415771       0.00000000       0.00000000       0.00000000       1.12781620       0.32967684      -0.37128347
Fe       2.77807853      10.12588129       6.07210214      15.79902840      -0.20097160       0.00486093       0.00638504     142.19894409       0.00000000       0.00000000       0.00000000       0.59599692      -0.58114672       0.36251643
Co       4.26657717       8.07354580       6.29302551      17.20076942       0.20076942       0.01685647       0.01635470     109.22065735       0.00000000       0.00000000       0.00000000      -0.16441602       0.00480554      -1.77864611
Fe       2.95997240       8.20297544       8.23766378      15.83470917      -0.16529083       0.04821775       0.03162227      53.66134644       0.00000000       0.00000000       0.00000000      -0.88361478      -1.15648806      -0.86998475
Co       4.26641638      10.01874693       8.21848016      17.16441917       0.16441917       0.01165781       0.00803352     165.45236206       0.00000000       0.00000000       0.00000000       0.83500499       0.99232787      -0.29083884
Fe       3.01531552      10.09994959      10.25910644      15.80063343      -0.19936657       0.04968001       0.04275236      27.30682945       0.00000000       0.00000000       0.00000000      -1.04269803      -0.48137781      -0.20578963
Co       4.32838261       7.86651828      10.08435348      17.20129204       0.20129204       0.01936530       0.01804503     169.09263611       0.00000000       0.00000000       0.00000000       0.40643379       3.01686859       0.20789739
Fe       5.68600000       0.00000000       0.00000000      15.84190369      -0.15809631       0.00186719       0.00144698      30.40785027       0.00000000       0.00000000       0.00000000       0.03579428       0.00226791      -0.02542251
Co       7.10750000       2.01030458       0.00000000      17.19515038       0.19515038       0.00058192       0.00041224    1237.05395508       0.00000000       0.00000000       0.00000000      -0.00611073      -0.00506283       0.50989974
Fe       5.68600000       2.01030458       2.01030458      15.78728485      -0.21271515       0.00103390       0.00102939     462.86291504       0.00000000       0.00000000       0.00000000      -0.13628815       0.09203203      -0.44718340
Co       7.10750000       0.00000000       2.01030458      17.16326904       0.16326904       0.00184722       0.00076590     151.73123169       0.00000000       0.00000000       0.00000000      -0.09933188       0.04777145       0.03676862
Fe       5.51955012       0.07711667       4.01612481      15.80884838      -0.19115162       0.00246847       0.00277619     622.54089355       0.00000000       0.00000000       0.00000000       1.47310030      -0.88417989       0.18759501
Co       6.97877550       1.98297668       4.03163665      17.19853401       0.19853401       0.00261985       0.00239562     411.32592773       0.00000000       0.00000000       0.00000000       0.72755182       0.64971787      -0.13966234
Fe       5.73169593       2.02063721       6.08555064      15.81245422      -0.18754578       0.00423266       0.00336722     349.31436157       0.00000000       0.00000000       0.00000000      -0.79643017       0.52093607      -0.69122159
Co       7.17888751       0.18225139       6.01599471      17.19295692       0.19295692       0.00447702       0.00272348     467.74493408       0.00000000       0.00000000       0.00000000      -0.18287478      -1.25906467      -0.06396924
Fe       5.69676082      12.05410935       7.95095494      15.79480743      -0.20519257       0.00786249       0.00227442     343.64425659       0.00000000       0.00000000       0.00000000      -0.10942654       0.60802233       0.47869301
Co       7.14914925       2.17243038       7.94862027      17.15824699       0.15824699       0.00746137       0.00437586     380.76336670       0.00000000       0.00000000       0.00000000      -0.08773754      -1.22146499       1.12976587
Fe       5.57405701       1.92235100      10.04898470      15.82742119      -0.17257881       0.00485324       0.00556732     101.74771118       0.00000000       0.00000000       0.00000000       0.36559135       0.33130509      -0.27828225
Co       6.94413540       0.04782596       9.92361283      17.30482101       0.30482101       0.01197070       0.00833653      53.37507248       0.00000000       0.00000000       0.00000000       0.28827664       0.23738801      -0.24157976
Fe       5.68600000       4.02060916       0.00000000      15.84171677      -0.15828323       0.00099621       0.00097021      29.63503838       0.00000000       0.00000000       0.00000000       0.01944145       0.00415910       0.02074486
Co       7.10750000       6.03091374       0.00000000      17.19449425       0.19449425       0.00073189       0.00072104     695.77380371       0.00000000       0.00000000       0.00000000      -0.01337400       0.00127034       0.50149769
Fe       5.68600000       6.03091374       2.01030458      15.78807545      -0.21192455       0.00143370       0.00138728     233.38616943       0.00000000       0.00000000       0.00000000       0.17342886       0.10873862      -0.25084880
Co       7.10750000       4.02060916       2.01030458      17.16444969       0.16444969       0.00205376       0.00188089      61.35177994       0.00000000       0.00000000       0.00000000       0.00104437      -0.05478068       0.10154636
Fe       5.63522677       4.08149229       4.03697969      15.79831314      -0.20168686       0.00246564       0.00101734     707.98565674       0.00000000       0.00000000       0.00000000       0.06868105      -0.64597636       0.31107667
Co       7.17633910       5.93867749       4.05383506      17.18963432       0.18963432       0.00346494       0.00169190     754.38342285       0.00000000       0.00000000       0.00000000      -0.40187457       1.19892931      -0.17348953
Fe       5.78311175       6.13011196       6.06352932      15.80022144      -0.19977856       0.01052248       0.01110494      96.65154266       0.00000000       0.00000000       0.00000000      -1.01649153      -0.34359634      -0.02517222
Co       7.05047160       4.17068094       6.08705743      17.18412018       0.18412018       0.00602591       0.00612150     186.08332825       0.00000000       0.00000000       0.00000000       0.37392244      -0.96764672      -0.47051138
Fe       5.72436595       4.03643815       8.02563878      15.80811310      -0.19188690       0.01193217       0.01385339      99.02544403       0.00000000       0.00000000       0.00000000      -1.23099446       0.06811744       0.60157478
Co       7.12323484       5.95787443       8.06479610      17.19167137       0.19167137       0.01630814       0.01728775     151.85340881       0.00000000       0.00000000       0.00000000      -0.99665165       2.28380299       0.82609051
Fe       5.75693690       6.25193353      10.26367921      15.81748962      -0.18251038       0.02069280       0.01418807     139.08122253       0.00000000       0.00000000       0.00000000       0.74993217      -1.76610899      -0.46018416
Co       6.97992823       4.00321450      10.13806505      17.19442368       0.19442368       0.01128432       0.00379344      99.53433228       0.00000000       0.00000000       0.00000000       0.13549148      -0.25438690      -0.24361710
Fe       5.68600000       8.04121832       0.00000000      15.84046745      -0.15953255       0.00199370       0.00184138       9.75010777       0.00000000       0.00000000       0.00000000      -0.00530154       0.00050878       0.01710212
Co       7.10750000      10.05152289       0.00000000      17.19386101       0.19386101       0.00121821       0.00123559     402.50161743       0.00000000       0.00000000       0.00000000      -0.04246510      -0.00316504       0.49550048
Fe       5.68600000      10.05152289       2.01030458      15.78706741      -0.21293259       0.00154769       0.00122200      80.86251831       0.00000000       0.00000000       0.00000000      -0.04779182      -0.08209109      -0.02715015
Co       7.10750000       8.04121832       2.01030458      17.16794014       0.16794014       0.00125217       0.00042936     561.78668213       0.00000000       0.00000000       0.00000000      -0.14849679      -0.04901861       0.18364331
Fe       5.65137548       8.05353182       4.19578197      15.80120182      -0.19879818       0.00399133       0.00390583     282.38311768       0.00000000       0.00000000       0.00000000       0.83084488       0.05598404      -0.72320426
Co       7.09581076      10.07548960       4.01524103      17.18191910       0.18191910       0.00135595       0.00121464     634.02697754       0.00000000       0.00000000       0.00000000      -0.09653546       0.31514230       0.69601637
Fe       5.67993673      10.00665814       6.15026180      15.80223846      -0.19776154       0.00680843       0.00846329     132.71127319       0.00000000       0.00000000       0.00000000       0.38375336       0.77160686      -0.72031987
Co       7.25085450       8.07432141       6.14866555      17.20750618       0.20750618       0.00694897       0.00623428     145.55531311       0.00000000       0.00000000       0.00000000      -0.59591722       0.46586996      -0.50124812
Fe       5.70423733       8.06893701       8.07849271      15.79130459      -0.20869541       0.01321720       0.01262627     114.39588165       0.00000000       0.00000000       0.00000000       0.84231758       0.03965224       1.17260456
Co       7.09780627      10.15722664       8.08249114      17.15669632       0.15669632       0.00976850       0.01250575      68.06057739       0.00000000       0.00000000       0.00000000       0.48717904      -0.56127089       0.41474444
Fe       5.74811469      10.12931182      10.31329005      15.80134106      -0.19865894       0.01047981       0.00990851     100.43405914       0.00000000       0.00000000       0.00000000      -0.79229915      -0.23120835      -0.55593932
Co       7.10441225       8.24965770      10.16482600      17.19841576       0.19841576       0.01383645       0.00985298      78.23281860       0.00000000       0.00000000       0.00000000       0.12224367      -0.58169401      -0.49041754
Fe       8.52900000       0.00000000       0.00000000      15.84081173      -0.15918827       0.00091156       0.00098966      33.27445602       0.00000000       0.00000000       0.00000000      -0.02243518      -0.00537466       0.02348978
Co       9.95050000       2.01030458       0.00000000      17.19612122       0.19612122       0.00088862       0.00089436     580.57928467       0.00000000       0.00000000       0.00000000      -0.01011043      -0.00823400       0.51908106
Fe       8.52900000       2.01030458       2.01030458      15.78769875      -0.21230125       0.00177011       0.00113520     311.36788940       0.00000000       0.00000000       0.00000000      -0.12960871       0.15825301      -0.28825602
Co       9.95050000       0.00000000       2.01030458      17.16948700       0.16948700       0.00161999       0.00182897      98.34567261       0.00000000       0.00000000       0.00000000       0.04281206       0.13148782      -0.11501628
Fe       8.54855836       0.10688293       4.05333774      15.80670834      -0.19329166       0.00307068       0.00374787     180.63430786       0.00000000       0.00000000       0.00000000      -0.22854507      -0.51622987      -0.37361497
Co       9.95743147       2.13483220       3.99607897      17.20330048       0.20330048       0.00231505       0.00258967     362.45465088       0.00000000       0.00000000       0.00000000       0.40602472      -0.84345853       0.06896179
Fe       8.60123926       2.20011187       6.00748548      15.81187439      -0.18812561       0.00452952       0.00288370     541.28289795       0.00000000       0.00000000       0.00000000      -1.07883346      -1.12723017       0.04296574
Co      10.08047359       0.14449158       5.91762086      17.19839287       0.19839287       0.00578784       0.00201056     729.90911865       0.00000000       0.00000000       0.00000000      -1.21349359      -0.41944832       0.71069336
Fe       8.59375452       0.11921508       7.99386854      15.79438782      -0.20561218       0.00787479       0.00274686     217.82165527       0.00000000       0.00000000       0.00000000      -0.21210539       0.11761449       0.54689074
Co       9.91640819       2.11571388       7.90538946      17.12998581       0.12998581       0.00830071       0.00360367     560.04315186       0.00000000       0.00000000       0.00000000       0.40222758       0.23893559       1.96321630
Fe       8.38008356       1.86270152      10.17776881      15.81150436      -0.18849564       0.01337224       0.01713873      73.79333496       0.00000000       0.00000000       0.00000000       0.67647547       0.88333917      -0.60130107
Co      10.14909349       0.11862968       9.94253768      17.22862244       0.22862244       0.01832746       0.01776454      22.64577103       0.00000000       0.00000000       0.00000000      -0.30639732      -0.25760198       0.03770755
Fe       8.52900000       4.02060916       0.00000000      15.84277630      -0.15722370       0.00114216       0.00045826     117.08335876       0.00000000       0.00000000       0.00000000       0.01288573       0.00342895       0.05195852
Co       9.95050000       6.03091374       0.00000000      17.19498634       0.19498634       0.00118033       0.00117648     415.36611938       0.00000000       0.00000000       0.00000000      -0.00050553       0.01307675       0.48849186
Fe       8.52900000       6.03091374       2.01030458      15.79271126      -0.20728874       0.00137644       0.00152896     226.34136963       0.00000000       0.00000000       0.00000000      -0.01610933      -0.12211511      -0.32340318