146
Lattice="11.372 0.0 0.0 0.0 12.061827473480129 0.0 0.0 0.0 30.051522894566773" Properties=species:S:1:pos:R:3:bader_charges:R:1:net_charges:R:1:force_std_comp_max:R:1:force_module_std:R:1:forces_realative_errors:R:1:momenta:R:3:forces:R:3 target_atoms="-1 -2" energy=0.0 pbc="T T T"
Fe       0.00000000       0.00000000       0.00000000      15.84229374      -0.15770626       0.00101085       0.00057024     100.04486084       0.00000000       0.00000000       0.00000000       0.03850517      -0.00900954      -0.04110454
Co       1.42150000       2.01030458       0.00000000      17.19670486       0.19670486       0.00113224       0.00113387     462.01217651       0.00000000       0.00000000       0.00000000      -0.00013036      -0.00840347       0.52379358
Fe       0.00000000       2.01030458       2.01030458      15.78760147      -0.21239853       0.00183006       0.00086338     164.03106689       0.00000000       0.00000000       0.00000000       0.02064704       0.13959149      -0.01179680
Co       1.42150000       0.00000000       2.01030458      17.17799759       0.17799759       0.00094793       0.00017027     638.13085938       0.00000000       0.00000000       0.00000000      -0.03799094       0.06495169      -0.07836562
Fe       0.09825550       0.06369343       4.10921210      15.80694675      -0.19305325       0.00328833       0.00285416     379.60687256       0.00000000       0.00000000       0.00000000      -0.74027419       0.35408118      -0.70746094
Co       1.41729467       2.09367238       4.14398092      17.18425560       0.18425560       0.00349655       0.00304169     293.36880493       0.00000000       0.00000000       0.00000000       0.21038550       0.17273512      -0.84979939
Fe      11.13992649       2.09682150       6.02618962      15.82784653      -0.17215347       0.00382363       0.00415308     776.47790527       0.00000000       0.00000000       0.00000000       2.87248015       0.41565067       1.40543330
Co       1.50182239       0.18489158       6.06372275      17.17017937       0.17017937       0.00647305       0.00278437     331.01370239       0.00000000       0.00000000       0.00000000      -0.68157423      -0.57960767       0.22118211
Fe       0.00284443       0.06845273       8.04344906      15.81611061      -0.18388939       0.01689276       0.01191711      41.96466064       0.00000000       0.00000000       0.00000000       0.43910265       0.16222440      -0.17525251
Co       1.49447922       2.01653416       8.08266322      17.16186523       0.16186523       0.02186633       0.01479136      58.21005630       0.00000000       0.00000000       0.00000000      -0.40037736       0.76081234       0.04007012
Fe       0.05768083       2.14004872      10.08297139      15.84152699      -0.15847301       0.02414583       0.01583735      58.40087891       0.00000000       0.00000000       0.00000000      -0.35430527      -0.85321617       0.03483517
Co       1.32234162       0.07035060      10.22372765      16.97819710      -0.02180290       0.03342946       0.00536734     235.38478088       0.00000000       0.00000000       0.00000000       1.19060993       0.25095043      -0.33813852
Fe       0.00000000       4.02060916       0.00000000      15.84389591      -0.15610409       0.00116079       0.00113356      33.91814041       0.00000000       0.00000000       0.00000000       0.03101661       0.00322506       0.02247500
Co       1.42150000       6.03091374       0.00000000      17.19389534       0.19389534       0.00156808       0.00154514     329.06134033       0.00000000       0.00000000       0.00000000       0.02974279       0.00745740       0.50751865
Fe       0.00000000       6.03091374       2.01030458      15.79023552      -0.20976448       0.00171221       0.00174764     241.17141724       0.00000000       0.00000000       0.00000000       0.01590779       0.02155102      -0.42062253
Co       1.42150000       4.02060916       2.01030458      17.16283035       0.16283035       0.00116794       0.00133242      89.84045410       0.00000000       0.00000000       0.00000000       0.03202968      -0.07301969       0.08927913
Fe       0.06707648       4.10169216       4.15081202      15.81446743      -0.18553257       0.00295858       0.00203654     753.39562988       0.00000000       0.00000000       0.00000000      -1.00739062      -0.34712857      -1.10398984
Co       1.44128047       5.95050287       3.98764694      17.19846725       0.19846725       0.00421505       0.00516196     285.80282593       0.00000000       0.00000000       0.00000000      -0.06534205       1.33163476       0.63164848
Fe       0.09109214       6.10878058       6.17462170      15.80090141      -0.19909859       0.00447918       0.00507664     337.19354248       0.00000000       0.00000000       0.00000000      -1.61241603       0.16236660      -0.55139911
Co       1.31278198       4.23159706       6.08436116      17.18148422       0.18148422       0.00680896       0.00654203     344.59939575       0.00000000       0.00000000       0.00000000       1.40214777      -1.57958531       0.78808600
Fe      11.34557406       4.11194101       8.28994176      15.78946114      -0.21053886       0.00810484       0.00751256     199.41516113       0.00000000       0.00000000       0.00000000      -0.68994808      -0.51304448      -1.22680724
Co       1.31336683       6.04658229       8.24979682      17.15126038       0.15126038       0.00781139       0.00541265     142.09268188       0.00000000       0.00000000       0.00000000       0.35296836       0.48215508      -0.48413813
Fe      11.07816532       6.07859565      10.33616959      15.81904984      -0.18095016       0.01042120       0.01089296     117.91104126       0.00000000       0.00000000       0.00000000       1.25158787      -0.10123832      -0.27006507
Co       1.32679196       4.10398407      10.09348791      17.21666336       0.21666336       0.01980203       0.01786225      46.82640839       0.00000000       0.00000000       0.00000000       0.44415659      -0.15831321       0.69060242
Fe       0.00000000       8.04121832       0.00000000      15.84455585      -0.15544415       0.00085175       0.00110795      27.38718605       0.00000000       0.00000000       0.00000000      -0.02103266      -0.00289533      -0.02166243
Co       1.42150000      10.05152289       0.00000000      17.19562912       0.19562912       0.00049468       0.00049436     974.69219971       0.00000000       0.00000000       0.00000000       0.01149353       0.00251191       0.48170051
Fe       0.00000000      10.05152289       2.01030458      15.78834724      -0.21165276       0.00158759       0.00085685     798.30224609       0.00000000       0.00000000       0.00000000       0.29098845       0.03787525      -0.61788428
Co       1.42150000       8.04121832       2.01030458      17.18219757       0.18219757       0.00242091       0.00139328      44.19833374       0.00000000       0.00000000       0.00000000      -0.01639093       0.02575781      -0.05340822
Fe       0.04359122       8.09899076       4.08279452      15.80886078      -0.19113922       0.00338578       0.00141835     818.81451416       0.00000000       0.00000000       0.00000000      -0.52282846      -0.52154624      -0.89632261
Co       1.36201366      10.15289879       4.12372754      17.20481491       0.20481491       0.00328405       0.00082649    1789.96716309       0.00000000       0.00000000       0.00000000       0.91102195      -0.77493596      -0.87069082
Fe       0.01186596      10.20246176       5.98666849      15.80731106      -0.19268894       0.00457265       0.00472531     247.90501404       0.00000000       0.00000000       0.00000000      -0.53740597      -0.26123077       1.00755548
Co       1.24988940       8.14665789       6.07334994      17.22295761       0.22295761       0.00540454       0.00312383     583.34222412       0.00000000       0.00000000       0.00000000       1.78096282      -0.01208132       0.38552183
Fe      11.28855581       8.05607831       8.13852833      15.80207825      -0.19792175       0.00595720       0.00684730     130.33715820       0.00000000       0.00000000       0.00000000       0.56268209       0.62369251      -0.30139688
Co       1.43207954      10.29621246       8.05403405      17.17411041       0.17411041       0.01604533       0.00779496     202.88647461       0.00000000       0.00000000       0.00000000      -1.01466620      -1.19978213      -0.17822626
Fe      11.35159067      10.13291603      10.33399058      15.78196239      -0.21803761       0.00931199       0.00423860     221.63713074       0.00000000       0.00000000       0.00000000      -0.16971789      -0.13877000      -0.91340947
Co       1.34188371       8.09211444       9.96336161      17.21781921       0.21781921       0.00902235       0.00546019     133.58473206       0.00000000       0.00000000       0.00000000      -0.07765524      -0.21657117       0.69210470
Fe       2.84300000       0.00000000       0.00000000      15.84112740      -0.15887260       0.00101836       0.00098594      50.60726547       0.00000000       0.00000000       0.00000000      -0.03040300      -0.00726891      -0.03886977
Co       4.26450000       2.01030458       0.00000000      17.19816017       0.19816017       0.00106631       0.00106240     507.64224243       0.00000000       0.00000000       0.00000000      -0.00164375      -0.00887416       0.53924215
Fe       2.84300000       2.01030458       2.01030458      15.78748798      -0.21251202       0.00287641       0.00193926      72.51032257       0.00000000       0.00000000       0.00000000      -0.09920634       0.08871584      -0.04532552
Co       4.26450000       0.00000000       2.01030458      17.17147446       0.17147446       0.00190134       0.00122190     184.26647949       0.00000000       0.00000000       0.00000000      -0.19881988      -0.00974881      -0.10519718
Fe       2.77151115       0.01291714       4.07380853      15.80576324      -0.19423676       0.00549459       0.00495628     248.71054077       0.00000000       0.00000000       0.00000000       0.54835188       0.22053647      -1.08173573
Co       4.30316006       2.01282720       4.02679379      17.19427490       0.19427490       0.00525579       0.00416111     204.09193420       0.00000000       0.00000000       0.00000000      -0.07868555       0.80685639      -0.25294137
Fe       2.91157339       2.09360534       5.96902721      15.80909729      -0.19090271       0.00528269       0.00516506     291.66574097       0.00000000       0.00000000       0.00000000      -0.11778788       0.88987947       1.20982289
Co       4.19533046       0.03848670       5.86268274      17.22054482       0.22054482       0.00928396       0.00843076     208.13905334       0.00000000       0.00000000       0.00000000       1.02684164       0.22136107       1.40562236
Fe       2.87314880       0.11269703       8.04200754      15.79431438      -0.20568562       0.01548949       0.01724666      45.04402542       0.00000000       0.00000000       0.00000000       0.17397389       0.49894425       0.56914937
Co       4.39624608       2.11554806       8.23339064      17.14168739       0.14168739       0.03344861       0.02083827      54.19162369       0.00000000       0.00000000       0.00000000      -0.44645816       0.12820250      -1.02825689
Fe       2.96535912       2.15078201      10.16297462      15.57901955      -0.42098045       0.04725204       0.04299265      24.38340187       0.00000000       0.00000000       0.00000000      -1.01771545      -0.01137916       0.24534829
Co       4.43508785       0.13257239      10.04849105      16.89207458      -0.10792542       0.03827585       0.02590232      73.80015564       0.00000000       0.00000000       0.00000000      -0.93681753      -1.62693107      -0.35823736
Fe       2.84300000       4.02060916       0.00000000      15.84067249      -0.15932751       0.00135715       0.00096799      43.75797272       0.00000000       0.00000000       0.00000000       0.00304903      -0.00125304       0.04220222
Co       4.26450000       6.03091374       0.00000000      17.19604301       0.19604301       0.00087026       0.00068807     744.58398438       0.00000000       0.00000000       0.00000000       0.00514498       0.00118757       0.51229465
Fe       2.84300000       6.03091374       2.01030458      15.78641319      -0.21358681       0.00148148       0.00053006     825.15820312       0.00000000       0.00000000       0.00000000       0.15201724       0.03756139      -0.40838340
Co       4.26450000       4.02060916       2.01030458      17.16819572       0.16819572       0.00185429       0.00080795     242.35420227       0.00000000       0.00000000       0.00000000       0.19433719       0.00914649      -0.02207733
Fe       2.94265909       4.14351386       4.04962286      15.80625343      -0.19374657       0.00299577       0.00342176     459.82760620       0.00000000       0.00000000       0.00000000      -0.65572441      -1.38787580       0.34563333
Co       4.30435886       5.95713458       4.08663296      17.20220375       0.20220375       0.00300900       0.00303428     585.31860352       0.00000000       0.00000000       0.00000000      -0.16044214       1.75712049      -0.20255169
Fe       2.88004109       6.15105061       6.19397006      15.79813576      -0.20186424       0.00791118       0.00485501     142.53590393       0.00000000       0.00000000       0.00000000      -0.48077488      -0.20395193      -0.45394972
Co       4.35862540       4.18455691       6.11316656      17.19164085       0.19164085       0.00729213       0.00605018     142.83847046       0.00000000       0.00000000       0.00000000      -0.77146953      -0.38602978      -0.05080925
Fe       2.79068527       4.06812048       8.25159483      15.78575420      -0.21424580       0.01293467       0.00850457     179.42219543       0.00000000       0.00000000       0.00000000       0.32677826      -0.19097808      -1.47816145
Co       4.18423412       6.15228081       8.20488829      17.16850281       0.16850281       0.01033263       0.00603396     131.05815125       0.00000000       0.00000000       0.00000000       0.55506790       0.21395046      -0.52095747
Fe       2.80616872       5.94352219      10.06533218      15.85915852      -0.14084148       0.00869907       0.00738841     258.96224976       0.00000000       0.00000000       0.00000000      -0.06339498       1.64388895       0.97689730
Co       4.25967854       4.15549885      10.04616867      17.19422340       0.19422340       0.03623516       0.01216620      57.76686859       0.00000000       0.00000000       0.00000000       0.63177198      -0.29245728       0.08711194
Fe       2.84300000       8.04121832       0.00000000      15.84132767      -0.15867233       0.00054164       0.00019572     190.05374146       0.00000000       0.00000000       0.00000000      -0.02293181       0.00151602      -0.02923759
Co       4.26450000      10.05152289       0.00000000      17.19455910       0.19455910       0.00109400       0.00113375     454.17019653       0.00000000       0.00000000       0.00000000      -0.03805458      -0.00801846       0.51344526
Fe       2.84300000      10.05152289       2.01030458      15.78712368      -0.21287632       0.00234601       0.00193086     211.07063293       0.00000000       0.00000000       0.00000000      -0.22170459       0.01010652      -0.34180394
Co       4.26450000       8.04121832       2.01030458      17.17425346       0.17425346       0.00224103       0.00136627     289.30383301       0.00000000       0.00000000       0.00000000      -0.27723283      -0.18823026      -0.20962575
Fe       2.73564158       8.00853285       4.06485455      15.79862309      -0.20137691       0.00266112       0.00223057     365.47262573       0.00000000       0.00000000       0.00000000       0.73395562       0.22575097       0.27369723
Co       4.21609661       9.95569312       3.97070722      17.19428635       0.19428635       0.00335547       0.00168521     740.27258301       0.00000000       0.00000000       0.00000000      -0.18635872       1.07299042       0.60847247
Fe       2.85888061      10.13706338       6.13761849      15.79596043      -0.20403957       0.01394538       0.01545931      57.22777557       0.00000000       0.00000000       0.00000000      -0.11194734      -0.45052266      -0.75310791
Co       4.34777737       8.08558968       6.16400889      17.20056725       0.20056725       0.00747617       0.00755408     176.59283447       0.00000000       0.00000000       0.00000000      -1.04970396       0.52488756      -0.63414872
Fe       2.69785006       8.19293849       8.09436480      15.78634739      -0.21365261       0.00896929       0.00293253     358.77551270       0.00000000       0.00000000       0.00000000       0.77221978      -0.71261734      -0.05198685
Co       4.18762524      10.19435404       8.15726478      17.15941048       0.15941048       0.03660824       0.03509034      36.47452545       0.00000000       0.00000000       0.00000000       0.90116847      -0.61407387      -0.66958547
Fe       2.69230134      10.03787710       9.91580095      15.85793495      -0.14206505       0.02590002       0.01320612     140.74493408       0.00000000       0.00000000       0.00000000       0.49666864       0.73499608       1.63298452
Co       4.31001264       8.30654088      10.13688587      17.16321373       0.16321373       0.01016749       0.00693573     148.85926819       0.00000000       0.00000000       0.00000000      -0.18915595      -0.87767792      -0.50963444
Fe       5.68600000       0.00000000       0.00000000      15.84158802      -0.15841198       0.00125494       0.00073634      21.96301460       0.00000000       0.00000000       0.00000000       0.00921771      -0.00187165       0.01307911
Co       7.10750000       2.01030458       0.00000000      17.19393539       0.19393539       0.00091025       0.00090609     598.67816162       0.00000000       0.00000000       0.00000000       0.01790744       0.01329464       0.54199523
Fe       5.68600000       2.01030458       2.01030458      15.78881931      -0.21118069       0.00196504       0.00196657     181.55981445       0.00000000       0.00000000       0.00000000       0.19075234       0.17750895      -0.24410434
Co       7.10750000       0.00000000       2.01030458      17.16368484       0.16368484       0.00159548       0.00130376     205.36828613       0.00000000       0.00000000       0.00000000       0.19602898       0.12034591      -0.13703367
Fe       5.66542208       0.08165977       3.97302046      15.80893803      -0.19106197       0.00355067       0.00083782     892.76507568       0.00000000       0.00000000       0.00000000       0.44609147      -0.51367468       0.31077456
Co       7.22076806       1.99730979       4.08082959      17.18003082       0.18003082       0.00466411       0.00312366     231.26727295       0.00000000       0.00000000       0.00000000      -0.57083660       0.32275480      -0.30301970
Fe       5.68808025       2.17458641       6.02273556      15.79827404      -0.20172596       0.00675912       0.00371804     196.16073608       0.00000000       0.00000000       0.00000000       0.21335356      -0.57158387       0.39955074
Co       7.23301552       0.07771483       6.03474116      17.20052910       0.20052910       0.00571442       0.00260697     709.48315430       0.00000000       0.00000000       0.00000000      -1.44223416      -0.41737562      -1.08014333
Fe       5.62621359       0.00821081       7.94827137      15.80118656      -0.19881344       0.02661444       0.00373490     253.00242615       0.00000000       0.00000000       0.00000000      -0.08623558       0.87054712      -0.35546082
Co       7.12127578       2.10875446       8.14754065      17.13023758       0.13023758       0.01838808       0.01076317     110.24291229       0.00000000       0.00000000       0.00000000      -0.75417352       0.34656334      -0.84764254
Fe       5.67503121       2.03796975      10.31440669      15.67382431      -0.32617569       0.02931936       0.01428335      71.29856110       0.00000000       0.00000000       0.00000000       0.08958392       1.01394820      -0.01141612
Co       6.95062892       0.12446567       9.84225496      17.28256416       0.28256416       0.03244245       0.01354206      75.05065918       0.00000000       0.00000000       0.00000000       0.64895606      -0.50523835       0.59570014
Fe       5.68600000       4.02060916       0.00000000      15.84385300      -0.15614700       0.00125509       0.00107224      37.05661011       0.00000000       0.00000000       0.00000000      -0.01243909       0.00182531      -0.03766346
Co       7.10750000       6.03091374       0.00000000      17.19657707       0.19657707       0.00153159       0.00071953     668.74603271       0.00000000       0.00000000       0.00000000      -0.03975216      -0.01546002       0.47928652
Fe       5.68600000       6.03091374       2.01030458      15.78411293      -0.21588707       0.00168730       0.00174613     245.80247498       0.00000000       0.00000000       0.00000000      -0.00422655       0.13702898      -0.40671700
Co       7.10750000       4.02060916       2.01030458      17.18029022       0.18029022       0.00346388       0.00363390     116.30480957       0.00000000       0.00000000       0.00000000       0.02265114      -0.02528111      -0.42126733
Fe       5.84499891       4.21748456       4.05093339      15.80983925      -0.19016075       0.00300501       0.00221344    1057.11694336       0.00000000       0.00000000       0.00000000      -1.41669703      -1.74793959      -0.64235163
Co       7.22076921       6.09348456       3.98510414      17.18439865       0.18439865       0.00194887       0.00175402     665.11962891       0.00000000       0.00000000       0.00000000      -0.73629612       0.86699593       0.25927570
Fe       5.79559657       6.17996171       6.05329277      15.80670547      -0.19329453       0.00493350       0.00321128     357.04586792       0.00000000       0.00000000       0.00000000      -0.95736587      -0.50033820       0.38432384
Co       7.09424726       4.21283622       5.90951414      17.21278954       0.21278954       0.00570509       0.00608593     372.48086548       0.00000000       0.00000000       0.00000000       0.80252039      -1.18470895       1.75818157
Fe       5.73463110       4.25968426       8.08732024      15.79920006      -0.20079994       0.00878823       0.00944414      94.99561310       0.00000000       0.00000000       0.00000000      -0.32641959      -0.79756176      -0.24926314
Co       7.15078887       6.22002954       8.15534221      17.17907333       0.17907333       0.00667086       0.00263416     244.72377014       0.00000000       0.00000000       0.00000000      -0.41622722      -0.45725006       0.18218787
Fe       5.64461272       6.12114245      10.19006106      15.82729244      -0.17270756       0.00780978       0.00610515     108.62931824       0.00000000       0.00000000       0.00000000       0.48066813       0.40476581      -0.21183239
Co       7.02201885       4.01588015       9.94027726      17.21276665       0.21276665       0.01445571       0.01488099      72.11010742       0.00000000       0.00000000       0.00000000       0.59734368       0.57329464       0.68247557
Fe       5.68600000       8.04121832       0.00000000      15.84696960      -0.15303040       0.00139915       0.00146279      17.90418625       0.00000000       0.00000000       0.00000000      -0.02439854      -0.00201952      -0.00927979
Co       7.10750000      10.05152289       0.00000000      17.19639778       0.19639778       0.00059586       0.00058677     828.15112305       0.00000000       0.00000000       0.00000000      -0.00907666      -0.00060249       0.48585281
Fe       5.68600000      10.05152289       2.01030458      15.78892231      -0.21107769       0.00170695       0.00178093     381.96917725       0.00000000       0.00000000       0.00000000      -0.14121610       0.06582585      -0.66217583
Co       7.10750000       8.04121832       2.01030458      17.16830063       0.16830063       0.00162423       0.00115701     198.53936768       0.00000000       0.00000000       0.00000000      -0.10880406       0.07760495      -0.18682362
Fe       5.59254677       8.07815096       3.99394760      15.80224037      -0.19775963       0.00250939       0.00172166     583.22497559       0.00000000       0.00000000       0.00000000       0.83059043      -0.37661049       0.42015386
Co       7.09062886      10.12945563       3.93522765      17.20200729       0.20200729       0.00274715       0.00235082     335.93386841       0.00000000       0.00000000       0.00000000       0.05118437      -0.04046661       0.78701335
Fe       5.70283669      10.17010344       5.94042167      15.80054569      -0.19945431       0.00550316       0.00250925     234.45358276       0.00000000       0.00000000       0.00000000      -0.31378222      -0.36847022       0.33438230
Co       7.02143708       8.09212530       6.01165987      17.18587494       0.18587494       0.00365525       0.00294320     490.20498657       0.00000000       0.00000000       0.00000000       1.21184134       0.72501338       0.29558647
Fe       5.64112464       8.15858217       8.15224357      15.78927612      -0.21072388       0.00894929       0.00574120      92.13813019       0.00000000       0.00000000       0.00000000       0.29521829      -0.03129439       0.43768758
Co       7.05280361      10.16059638       7.95548802      17.17731667       0.17731667       0.01200031       0.00674235     170.72413635       0.00000000       0.00000000       0.00000000       0.23964041      -0.93401337       0.62836587
Fe       5.87830067      10.16204537      10.10144229      15.84169388      -0.15830612       0.01068580       0.00444024     238.30534363       0.00000000       0.00000000       0.00000000      -0.94606686      -0.45206562      -0.14155108
Co       7.21011866       8.18874315      10.29097019      17.16020775       0.16020775       0.00396000       0.00219674     433.15936279       0.00000000       0.00000000       0.00000000      -0.22159453      -0.29112071      -0.87837565
Fe       8.52900000       0.00000000       0.00000000      15.84146023      -0.15853977       0.00130545       0.00078715      28.49783516       0.00000000       0.00000000       0.00000000       0.01871313      -0.01130504      -0.00475800
Co       9.95050000       2.01030458       0.00000000      17.19784927       0.19784927       0.00082542       0.00081537     650.56890869       0.00000000       0.00000000       0.00000000       0.02477211      -0.00691304       0.52982706
Fe       8.52900000       2.01030458       2.01030458      15.78655815      -0.21344185       0.00144870       0.00178787     141.39668274       0.00000000       0.00000000       0.00000000       0.15951183      -0.00696209      -0.19599590
Co       9.95050000       0.00000000       2.01030458      17.17226410       0.17226410       0.00197368       0.00100743     528.46643066       0.00000000       0.00000000       0.00000000       0.38885465       0.17113593      -0.32084560
Fe       8.71481438      12.05924637       4.00813759      15.80858612      -0.19141388       0.00289229       0.00221755     654.69012451       0.00000000       0.00000000       0.00000000      -1.32550240       0.51177526       0.29810140
Co      10.01420395       2.05765179       4.11922077      17.17774010       0.17774010       0.00424653       0.00474550     357.67349243       0.00000000       0.00000000       0.00000000      -0.93036866       0.17993984      -1.40818417
Fe       8.48711572       1.99497427       6.18077402      15.80885029      -0.19114971       0.00414464       0.00421583     346.88452148       0.00000000       0.00000000       0.00000000       0.12333289       1.31022310      -0.63774955
Co      10.04647131       0.13434310       6.07953468      17.20646095       0.20646095       0.00486769       0.00393320     441.21810913       0.00000000       0.00000000       0.00000000      -1.14982271      -1.29777336      -0.07252431
Fe       8.34247317       0.01820972       8.00903384      15.79745007      -0.20254993       0.01435088       0.01325751     165.64961243       0.00000000       0.00000000       0.00000000       2.13380098       0.25661623       0.45148990
Co       9.94300092       2.03920367       8.13981966      17.13091469       0.13091469       0.01424604       0.00906469      70.16009521       0.00000000       0.00000000       0.00000000      -0.38234484       0.50658822      -0.03868116
Fe       8.35684451       1.93832888      10.07609890      15.82387638      -0.17612362       0.02222310       0.02138997      57.53878784       0.00000000       0.00000000       0.00000000       1.01141775       0.53090101       0.45807660
Co      10.05271533       0.05890619       9.80006530      17.26675606       0.26675606       0.01480197       0.00970500     142.95193481       0.00000000       0.00000000       0.00000000      -0.59985828       0.21482146       1.23229957
Fe       8.52900000       4.02060916       0.00000000      15.84124088      -0.15875912       0.00092772       0.00078360      79.07995605       0.00000000       0.00000000       0.00000000       0.05282032       0.00464185      -0.03205817
Co       9.95050000       6.03091374       0.00000000      17.19793892       0.19793892       0.00160081       0.00160206     282.19808960       0.00000000       0.00000000       0.00000000       0.01410848      -0.00252725       0.45187145
Fe       8.52900000       6.03091374       2.01030458      15.79625320      -0.20374680       0.00137056       0.00044193    2133.94848633       0.00000000       0.00000000       0.00000000       0.06836443       0.20972773      -0.91690218