146
Lattice="11.372 0.0 0.0 0.0 12.061827473480129 0.0 0.0 0.0 30.051522894566773" Properties=species:S:1:pos:R:3:forces:R:3:bader_charges:R:1:net_charges:R:1:force_std_comp_max:R:1:force_module_std:R:1:forces_realative_errors:R:1 energy=0.0 colvar.time=1877.0 colvar.coord_Co-Fe=906.411567 colvar.coord_Co-N=8.411191 colvar.coord_Fe-N=9.031843 colvar.dist_N-N=2.756744 colvar.walker=0 uncertainty=0.17022035 frame=1877 step=0 target_atoms="0 1 2 3 4 5 6 7 8 9 10 11 12 13 14 15 16 17 18 19 20 21 22 23 24 25 26 27 28 29 30 31 32 33 34 35 36 37 38 39 40 41 42 43 44 45 46 47 48 49 50 51 52 53 54 55 56 57 58 59 60 61 62 63 64 65 66 67 68 69 70 71 72 73 74 75 76 77 78 79 80 81 82 83 84 85 86 87 88 89 90 91 92 93 94 95 96 97 98 99 100 101 102 103 104 105 106 107 108 109 110 111 112 113 114 115 116 117 118 119 120 121 122 123 124 125 126 127 128 129 130 131 132 133 134 135 136 137 138 139 140 141 142 143 144 145" pbc="T T F"
Fe       0.00000000       0.00000000       0.00000000       0.03537656      -0.00145498      -0.09977086      15.84124565      -0.15875435       0.00183545       0.00083562     126.72198486
Co       1.42150000       2.01030458       0.00000000      -0.01527591      -0.00649676       0.47983372      17.19618416       0.19618416       0.00094860       0.00087174     550.76397705
Fe       0.00000000       2.01030458       2.01030458       0.10401841       0.13187158      -0.29840901      15.78561592      -0.21438408       0.00191698       0.00069419     493.29238892
Co       1.42150000       0.00000000       2.01030458      -0.01733714      -0.06551891      -0.24263869      17.17549706       0.17549706       0.00231309       0.00174971     143.98703003
Fe      11.24650484      11.99597641       3.90787781       1.22427070       0.20035203       1.30854023      15.81448650      -0.18551350       0.00381144       0.00358126     503.48889160
Co       1.44048194       1.98979521       4.03699331      -0.82019639       0.13400264       0.05524043      17.18470573       0.18470573       0.00506793       0.00484272     171.99319458
Fe      11.29095034       2.12046285       6.04892142       0.19469005      -0.90213799      -0.08481851      15.81138802      -0.18861198       0.00888832       0.00539380     171.83694458
Co       1.26349736       0.03379562       6.18400554       1.02251828      -0.15724105      -1.83454061      17.17374420       0.17374420       0.00673781       0.00652844     322.61151123
Fe      11.36603475      11.97612074       8.05717022      -0.54153788       0.65043676       0.65739191      15.82612991      -0.17387009       0.00774900       0.00458973     233.50125122
Co       1.18403321       2.04242852       8.14980652       0.96972871      -0.11546124      -0.14691168      17.15032578       0.15032578       0.03148162       0.01496082      66.06090546
Fe      11.17583750       2.12518999      10.23941262       0.52493870      -0.21659228      -0.41610926      15.80429649      -0.19570351       0.03287535       0.01393394      50.58586121
Co       1.36638341      12.03588969       9.91601374       0.14215036       0.12706362       0.38668746      17.21389771       0.21389771       0.01393142       0.00327640     131.66790771
Fe       0.00000000       4.02060916       0.00000000       0.03423375       0.00744292       0.02886559      15.84093475      -0.15906525       0.00102817       0.00115476      39.32259369
Co       1.42150000       6.03091374       0.00000000      -0.00469675       0.00543140       0.53418106      17.19463730       0.19463730       0.00114968       0.00114867     465.08624268
Fe       0.00000000       6.03091374       2.01030458       0.10151851       0.11702682      -0.30992356      15.78441048      -0.21558952       0.00113181       0.00139332     248.67793274
Co       1.42150000       4.02060916       2.01030458       0.12338536       0.02657224       0.12980393      17.16456985       0.16456985       0.00161926       0.00165892     109.14138794
Fe      11.31118821       4.19398389       3.97643428       0.72851712      -1.51496136       0.45017630      15.80307293      -0.19692707       0.00615231       0.00314777     552.85900879
Co       1.56265676       5.99145046       4.08792819      -0.74883503       0.73436272      -0.45332402      17.20314026       0.20314026       0.00348717       0.00292216     391.01528931
Fe       0.02451804       6.03503334       6.06584842      -0.11544520       0.40481973       0.18941432      15.80099773      -0.19900227       0.00956237       0.00913192      50.55946732
Co       1.28664957       4.08886558       6.10151640       0.59811652      -1.02232885       0.38419640      17.19399261       0.19399261       0.00932977       0.00869942     143.13835144
Fe      11.23661805       3.97704010       8.21502724       0.38315585       0.41037625      -0.38539016      15.79825687      -0.20174313       0.02717820       0.02704067      25.20943260
Co       1.50293061       6.04091143       8.07778855      -0.19432351      -0.32596236       0.21863519      17.05418587       0.05418587       0.02739522       0.03017237      14.54477024
Fe      11.02485684       6.07811370      10.25593624       0.60341984      -0.49386537       0.38693225      15.62866402      -0.37133598       0.04355568       0.03873094      22.50074959
Co       1.09828679       4.30933821      10.19454959       0.26888186      -0.64543951      -0.09952340      16.70283127      -0.29716873       0.08135530       0.07556220       9.39833069
Fe       0.00000000       8.04121832       0.00000000       0.00393931      -0.00524013       0.01792828      15.84111309      -0.15888691       0.00092026       0.00093975      20.35009003
Co       1.42150000      10.05152289       0.00000000       0.02039566       0.00967399       0.52998513      17.19389534       0.19389534       0.00070368       0.00047730    1111.39147949
Fe       0.00000000      10.05152289       2.01030458      -0.16312397      -0.32935998      -0.54867393      15.79109859      -0.20890141       0.00119755       0.00028435    2322.47802734
Co       1.42150000       8.04121832       2.01030458      -0.06516447      -0.06970659       0.05520264      17.16965866       0.16965866       0.00194054       0.00142471      77.39253998
Fe       0.00005703       7.85203428       4.10704033       0.14322510       1.17928421      -0.59130633      15.80625248      -0.19374752       0.00567816       0.00692648     191.58103943
Co       1.29453787      10.01286077       4.02791972       0.41618207       0.06149257       0.02165223      17.19541550       0.19541550       0.00387436       0.00377264     111.66681671
Fe      11.35531258       9.97657271       6.19041036      -0.39104396       0.65608698      -1.30853093      15.81219482      -0.18780518       0.00962977       0.00616593     245.73231506
Co       1.47231327       8.16308912       6.02767918       0.29491740      -1.50055313      -0.19737694      17.17455864       0.17455864       0.00899891       0.00960965     160.46012878
Fe       0.07514724       7.93039018       7.98536178       0.06846856       0.83593369       0.94723606      15.79406738      -0.20593262       0.01906627       0.01494708      84.65927887
Co       1.57655451      10.05775755       7.89580208      -0.28733385       0.03793620       1.63123286      17.15299988       0.15299988       0.01282422       0.01022889     161.97584534
Fe       0.12096723       9.75528978      10.27417527      -0.10728249       0.83947504      -0.91900265      15.77600956      -0.22399044       0.01897913       0.01488146      83.96334076
Co       1.48724374       7.77420612      10.03919922       0.29484037       0.58696741      -0.08595458      16.93843651      -0.06156349       0.03995471       0.02455141      27.05365562
Fe       2.84300000       0.00000000       0.00000000      -0.00205867       0.00907803      -0.01342167      15.84108162      -0.15891838       0.00180784       0.00208843       7.84612226
Co       4.26450000       2.01030458       0.00000000       0.00163381      -0.00499050       0.49352750      17.19630051       0.19630051       0.00119345       0.00038583    1279.19567871
Fe       2.84300000       2.01030458       2.01030458      -0.18882561       0.07818159      -0.42412812      15.79399872      -0.20600128       0.00299240       0.00219868     214.13308716
Co       4.26450000       0.00000000       2.01030458      -0.14433962      -0.08694224      -0.13606697      17.16900635       0.16900635       0.00330503       0.00344139      62.93571472
Fe       2.76922264      12.00889964       4.04680161       0.08089560       0.15528807       0.21894063      15.79460526      -0.20539474       0.00373211       0.00436102      64.29125214
Co       4.19533845       1.97633796       3.96281281       0.18056980       0.32881331       0.96006411      17.18699074       0.18699074       0.00218958       0.00189390     544.24938965
Fe       2.71827542       1.95991429       6.07896218       0.38399178       0.73438036       0.12469491      15.79301929      -0.20698071       0.00601954       0.00486613     172.22674561
Co       4.24764958       0.05535109       6.14691682       0.22869390      -0.98426372      -0.95362139      17.22885132       0.22885132       0.00650026       0.00606069     229.25151062
Fe       2.89848658       0.11750148       7.97418671      -0.84537101      -0.76314044       1.35433173      15.79876328      -0.20123672       0.01143458       0.00445213     397.47290039
Co       4.25799546       2.12661908       8.12876896       0.30637804      -1.53240228      -0.05591561      17.17244148       0.17244148       0.01802586       0.01703508      91.80084229
Fe       2.79410455       2.03529641      10.01901908      -0.72663224       0.77948129       0.27746820      15.63602066      -0.36397934       0.04960820       0.03164756      34.82861328
Co       4.17195096       0.21871511      10.02492838       0.44201311      -0.86937433      -0.02529211      17.21030807       0.21030807       0.01266307       0.01529256      63.80211639
Fe       2.84300000       4.02060916       0.00000000      -0.01866162      -0.01366233       0.00631785      15.84228325      -0.15771675       0.00130222       0.00081669      29.41096306
Co       4.26450000       6.03091374       0.00000000       0.01108263       0.02024038       0.53015202      17.19508362       0.19508362       0.00196567       0.00200909     264.12722778
Fe       2.84300000       6.03091374       2.01030458       0.12668891      -0.12887287      -0.14240505      15.78933620      -0.21066380       0.00377650       0.00243995      94.31099701
Co       4.26450000       4.02060916       2.01030458      -0.34985304       0.00917343      -0.14676973      17.16514778       0.16514778       0.00413260       0.00341460     111.14583588
Fe       2.82090189       4.01155099       4.25617536      -0.49794304      -0.65357476      -2.19698095      15.82005978      -0.17994022       0.01020475       0.01008041     232.68943787
Co       4.28853703       5.93861912       4.10159889      -0.45207474       1.11742902      -0.97258830      17.17070007       0.17070007       0.00346775       0.00328580     471.37838745
Fe       2.80576019       5.87677080       6.10452425       0.27007586       1.60051405       0.32301486      15.81655502      -0.18344498       0.02728422       0.00763789     216.70933533
Co       4.31067902       4.10923572       5.90352954       0.11405368      -1.51723480       2.17706561      17.19377327       0.19377327       0.00933510       0.00691780     383.94720459
Fe       2.89439046       3.96783851       8.14356342      -0.72570699       0.69227916       0.41074598      15.63548088      -0.36451912       0.02849567       0.01471474      73.69039154
Co       4.38110443       6.02520201       8.04526518      -0.86887991      -0.34501326       0.36472511      17.15894890       0.15894890       0.02953360       0.03445074      29.13950157
Fe       3.11852110       5.82526866      10.26264634      -0.75669771       0.74965465      -0.35709795      15.42519855      -0.57480145       0.08693853       0.03825659      29.48995399
Co       4.69015000       3.96123899      10.23968485      -0.52875906      -0.68929374      -0.52020317      16.94879532      -0.05120468       0.04140883       0.03297064      30.74715614
Fe       2.84300000       8.04121832       0.00000000      -0.04082092       0.00690816      -0.03871313      15.83943272      -0.16056728       0.00092486       0.00079210      71.57112885
Co       4.26450000      10.05152289       0.00000000      -0.01016832      -0.01864145       0.52912766      17.19571877       0.19571877       0.00085425       0.00076625     691.09948730
Fe       2.84300000      10.05152289       2.01030458      -0.13292459       0.15842828      -0.37757152      15.78214550      -0.21785450       0.00229166       0.00292143     147.36152649
Co       4.26450000       8.04121832       2.01030458       0.37624246      -0.06638834      -0.65474850      17.18597603       0.18597603       0.00363355       0.00340742     222.47583008
Fe       3.00463126       8.17571602       3.92694287      -1.51578903      -1.23094773       0.91421545      15.81784153      -0.18215847       0.00535351       0.00407784     528.72918701
Co       4.42394886      10.04340722       3.98583303      -1.16720831       0.27520239      -0.15484470      17.23655128       0.23655128       0.00529967       0.00111498    1084.48901367
Fe       2.87706328      10.06453943       5.86525602       0.04347026       0.19216928       1.06393981      15.80986023      -0.19013977       0.01260677       0.01188661      91.03364563
Co       4.20216421       7.88243163       6.00832706       0.29623023       0.81577837       0.27445006      17.19637871       0.19637871       0.01025693       0.00774281     117.57244873
Fe       3.00058065       8.12654836       8.08982548      -1.22650146      -0.99975592      -0.32917207      15.80469227      -0.19530773       0.02245131       0.02707950      59.68946457
Co       4.36426685      10.04408455       8.22619656      -1.25822878       0.02419332      -1.54011130      17.17367935       0.17367935       0.00830911       0.00195457    1017.56903076
Fe       2.90173591      10.15227310      10.11950358      -0.89969325      -0.30494094      -0.25343731      15.83257866      -0.16742134       0.02133761       0.01241785      79.19218445
Co       4.20448491       8.02068084      10.03902474       0.03318435      -0.17383084       0.36275262      17.20590019       0.20590019       0.03526882       0.00988688      41.09755707
Fe       5.68600000       0.00000000       0.00000000      -0.05053949      -0.00360695      -0.05274364      15.84538651      -0.15461349       0.00080527       0.00069348     105.46927643
Co       7.10750000       2.01030458       0.00000000       0.00349009      -0.00812746       0.50867832      17.19647217       0.19647217       0.00068688       0.00068642     741.16778564
Fe       5.68600000       2.01030458       2.01030458      -0.02546427       0.00915941      -0.39560068      15.78665447      -0.21334553       0.00235441       0.00240532     164.85615540
Co       7.10750000       0.00000000       2.01030458      -0.41673404       0.07679081      -0.35970989      17.17460442       0.17460442       0.00205906       0.00206208     269.55242920
Fe       5.55693697       0.05799946       4.06932136       1.25799811      -0.18243931      -0.01623504      15.80732346      -0.19267654       0.00233165       0.00218039     583.04583740
Co       7.06872566       2.07272188       4.05143052      -0.37457585      -0.90422064      -0.23652238      17.18393517       0.18393517       0.00223015       0.00251163     400.89968872
Fe       5.57432204       1.92789145       6.18594000       0.86864269       0.80124009      -1.24376273      15.80683327      -0.19316673       0.00908159       0.00446663     384.11349487
Co       7.14190146      12.05861246       6.01311443      -0.53236920      -0.24374627       0.15236920      17.18498039       0.18498039       0.00394026       0.00264104     229.09019470
Fe       5.73318703      11.85374563       8.21819497       0.14336206       1.95667732      -0.89168358      15.79554749      -0.20445251       0.02518878       0.02475471      87.05722809
Co       7.12586535       2.05494053       8.01349614      -0.12297894      -1.02530158       0.47194147      17.17679787       0.17679787       0.01174810       0.00906732     125.22154999
Fe       5.98899828       1.93756669      10.13034848      -0.85487759      -0.27048993      -0.17037183      15.83555603      -0.16444397       0.03074488       0.03228387      28.27722359
Co       7.09827823      11.85270316      10.08602544       0.51487207       0.30679566      -0.17142561      17.20772934       0.20772934       0.00778349       0.00661347      94.26848602
Fe       5.68600000       4.02060916       0.00000000      -0.00322099       0.00271096       0.04331831      15.84339333      -0.15660667       0.00101507       0.00106027      41.05159760
Co       7.10750000       6.03091374       0.00000000      -0.01478775       0.01371610       0.50563329      17.19596672       0.19596672       0.00121187       0.00120780     418.97454834
Fe       5.68600000       6.03091374       2.01030458       0.04160592      -0.10341337      -0.23537576      15.78639698      -0.21360302       0.00229915       0.00182924     142.38345337
Co       7.10750000       4.02060916       2.01030458       0.16097227      -0.01720297      -0.01305891      17.16244888       0.16244888       0.00255529       0.00104960     154.76353455
Fe       5.61628297       4.03394481       3.97032004       0.76430184      -0.56853253       0.09220232      15.82019329      -0.17980671       0.00311031       0.00282807     338.40304565
Co       7.11963630       5.97071460       4.08310952       0.16255198       0.18519665      -0.55898160      17.17663002       0.17663002       0.00478253       0.00448390     136.24124146
Fe       5.71056360       6.07110147       6.04651219      -0.00617901      -0.77627504       0.16649492      15.81647873      -0.18352127       0.00841451       0.00627209     126.59369659
Co       7.02650395       4.01467973       5.95069937       0.07788263      -0.12069202       0.51724350      17.17314148       0.17314148       0.00727898       0.00567251      94.64791107
Fe       5.62970292       3.94645487       8.07729623       0.75560170       0.93509960      -0.07049620      15.79262829      -0.20737171       0.01654386       0.01149206     104.81343842
Co       7.14080463       5.95042072       8.03690787      -0.71065390       0.71246171       0.69044316      17.16828156       0.16828156       0.00894477       0.00514635     237.14671326
Fe       5.67886663       6.05183864      10.11895802       0.61898196       0.68887001      -0.03326606      15.82578945      -0.17421055       0.04008957       0.03074922      30.15140915
Co       7.03963109       4.10367317      10.14941565       1.07027686      -0.30691308      -0.64053094      17.15088654       0.15088654       0.02498107       0.02008722      63.95610046
Fe       5.68600000       8.04121832       0.00000000       0.07253121      -0.00231156      -0.07968745      15.84042168      -0.15957832       0.00085795       0.00095304     113.09318542
Co       7.10750000      10.05152289       0.00000000      -0.00985238       0.01291053       0.47707510      17.19738579       0.19738579       0.00132070       0.00131731     362.36892700
Fe       5.68600000      10.05152289       2.01030458       0.43057805       0.04361933      -0.64357698      15.78861046      -0.21138954       0.00218122       0.00260557     297.65429688
Co       7.10750000       8.04121832       2.01030458       0.04850417      -0.04699820       0.04986177      17.17523193       0.17523193       0.00210784       0.00136280      61.63190460
Fe       5.67448687       7.92757685       4.01661710       0.74765402       0.41888452       0.16802397      15.80008793      -0.19991207       0.00372142       0.00215934     404.44360352
Co       7.13035495      10.11130419       4.04261175      -0.33388469      -0.70944977       0.09678361      17.16643524       0.16643524       0.00508452       0.00137760     573.50219727
Fe       5.58604410       9.82802913       5.96336498       0.92370152       1.28813922       1.12794828      15.80206680      -0.19793320       0.00569109       0.00531794     365.83087158
Co       7.08792155       7.94735875       6.18754057       0.17578217       0.72882813      -1.27463603      17.19534874       0.19534874       0.00988869       0.01026536     144.05564880
Fe       5.70933322       7.97757491       8.22065523      -0.30036455       0.14568818      -0.97977364      15.79816818      -0.20183182       0.00788331       0.00181673     569.77490234
Co       7.01682238       9.92270374       8.08301941       1.11557627       0.42594081      -0.01902432      17.12266922       0.12266922       0.00697874       0.00227783     524.31549072
Fe       5.45768552      10.03642579      10.19006151       1.32102871       0.15217119       0.64843357      15.84791851      -0.15208149       0.01438334       0.00631508     234.28733826
Co       7.18821859       8.22001012       9.93429166      -0.31423280      -0.68906558       0.89544594      17.21496391       0.21496391       0.00880948       0.00546026     214.79052734
Fe       8.52900000       0.00000000       0.00000000      -0.08265389      -0.00193048      -0.10726632      15.84502792      -0.15497208       0.00175093       0.00075418     179.59620667
Co       9.95050000       2.01030458       0.00000000      -0.00226383      -0.02268909       0.53007454      17.19492531       0.19492531       0.00098643       0.00026515    2001.02673340
Fe       8.52900000       2.01030458       2.01030458      -0.21842605       0.18242702      -0.51687050      15.78497505      -0.21502495       0.00129322       0.00076868     767.59808350
Co       9.95050000       0.00000000       2.01030458      -0.10084311      -0.04199209      -1.05624461      17.18610573       0.18610573       0.00344685       0.00355684     298.54602051
Fe       8.51238846      12.05951532       3.86758302      -0.27385467      -0.05263009       1.82366908      15.81064415      -0.18935585       0.00170130       0.00161967    1139.03833008
Co       9.91406517       1.94154923       4.00232222       0.67925560       0.49237916       0.06305569      17.20157623       0.20157623       0.00258715       0.00225365     373.31127930
Fe       8.47076689       2.03070370       5.98620591       0.41751730      -0.58671850       0.61010551      15.80885029      -0.19114971       0.00555323       0.00628034     150.28323364
Co      10.02912758       0.01087234       5.95377099      -1.12614584      -0.17858562       0.35201806      17.16758728       0.16758728       0.00618428       0.00223770     533.28845215
Fe       8.55055618      11.95516093       8.01637716      -0.38993832       0.48885867       0.61445856      15.79190922      -0.20809078       0.00893157       0.00411047     213.29995728
Co       9.84701039       1.96223243       8.09734622       0.09823897       0.16193199      -0.17463154      17.13393021       0.13393021       0.01059076       0.00175578     147.02929688
Fe       8.57530452       1.85377490      10.16446589      -0.84654117       0.31846350      -0.26732048      15.84553909      -0.15446091       0.01559667       0.01416005      66.61399078
Co       9.98412880       0.05453619      10.05115619       0.33089480      -0.86052293      -0.13173085      17.21157646       0.21157646       0.01727821       0.01694242      54.97066879
Fe       8.52900000       4.02060916       0.00000000      -0.03354735      -0.00452984       0.00169707      15.84097195      -0.15902805       0.00168483       0.00023119     146.88710022
Co       9.95050000       6.03091374       0.00000000       0.01657174      -0.00442193       0.53487051      17.19224548       0.19224548       0.00108275       0.00100899     530.37786865
Fe       8.52900000       6.03091374       2.01030458      -0.21313477      -0.09962401      -0.29298365      15.79174709      -0.20825291       0.00141135       0.00083156     451.86996460
Co       9.95050000       4.02060916       2.01030458      -0.16077526      -0.03759935      -0.17358109      17.17329788       0.17329788       0.00204517       0.00189554     126.39044189
Fe       8.60213848       3.85647861       4.14123596      -0.71560824       1.50104392      -1.07512593      15.81774712      -0.18225288       0.00287148       0.00129878    1524.64648438
Co       9.83713253       5.99163805       4.03728814       0.56927580       0.29822057      -0.02967072      17.21537018       0.21537018       0.00300213       0.00346231     185.81391907
Fe       8.55337888       6.04818510       6.04885239      -0.21469083      -0.60642326       0.05805939      15.80336285      -0.19663715       0.00689251       0.00467624     138.14189148
Co       9.99732862       4.07645707       6.06896343      -0.74990165      -0.13418634       0.14008217      17.20117950       0.20117950       0.00475147       0.00408436     189.65306091
Fe       8.34630402       4.06993436       7.95534471       1.36118197      -0.89404154       0.63183653      15.81785202      -0.18214798       0.02374468       0.01712966     101.98684692
Co      10.01516822       5.97083450       8.13492056      -0.79096639       0.13899907      -0.54807901      17.15195465       0.15195465       0.02336798       0.02678592      36.30223083
Fe       8.42499857       6.14245575      10.25725793      -0.35805705      -0.51540488      -0.49737552      15.79502869      -0.20497131       0.02341838       0.03050444      26.25617981
Co       9.58002608       4.00171614       9.99131536       0.84537256       0.28172851       0.13032956      17.20978546       0.20978546       0.02984194       0.03320297      27.14018250
Fe       8.52900000       8.04121832       0.00000000       0.02827697       0.00872943       0.00053785      15.84307575      -0.15692425       0.00121528       0.00069919      42.37482834
Co       9.95050000      10.05152289       0.00000000      -0.00529138       0.02498417       0.50098634      17.19376183       0.19376183       0.00073300       0.00050113    1001.01239014
Fe       8.52900000      10.05152289       2.01030458      -0.19701764      -0.20788458      -0.61029661      15.78969669      -0.21030331       0.00158568       0.00165014     408.54956055
Co       9.95050000       8.04121832       2.01030458       0.02498593      -0.16260412      -0.02708156      17.16401100       0.16401100       0.00182688       0.00110496     150.89950562
Fe       8.57361752       8.04408428       4.06744587      -1.14191532      -0.21775196      -0.09393606      15.80257130      -0.19742870       0.00340886       0.00325798     357.97790527
Co       9.85759939       9.95875975       3.97995249       0.95381999       0.54233885       0.78643060      17.17720032       0.17720032       0.00246570       0.00214250     630.08465576
Fe       8.52314012      10.04470950       6.13749524      -0.06715558      -0.07982594      -0.38873059      15.80311203      -0.19688797       0.00417650       0.00439110      91.66156006
Co       9.92691660       8.04214096       6.07336677       0.26310951      -0.19450292      -0.12010385      17.22486687       0.22486687       0.00760402       0.00351261      99.26689911
Fe       8.56312745       7.87166085       8.03313452      -0.15482011       1.16278780       0.37244684      15.79948330      -0.20051670       0.00879204       0.00401257     306.73779297
Co       9.99510913      10.08125204       8.24646646      -0.03747037      -1.22194755      -0.50168526      17.17360687       0.17360687       0.00845480       0.00441891     299.05609131
Fe       8.68385260      10.01150031      10.25507056      -0.15239921       0.30088347      -0.41330442      15.81989288      -0.18010712       0.01236521       0.00902007      59.16185760
Co       9.90634782       7.91455563       9.90459040      -0.04844763       1.58960307       0.28329641      17.30379677       0.30379677       0.01847891       0.01874636      86.17270660
N        1.42277050       6.21887388      10.93790651      -0.55827439      -0.26990432      -0.64728755       6.04469681       1.04469681       0.04184780       0.01949289      46.09873962
N        2.87439841       3.97905163      10.24826041       0.47909835      -1.17198300       0.23054224       6.16243267       1.16243267       0.17022035       0.16377550       7.87820911
146
Lattice="11.372 0.0 0.0 0.0 12.061827473480129 0.0 0.0 0.0 30.051522894566773" Properties=species:S:1:pos:R:3:forces:R:3:bader_charges:R:1:net_charges:R:1:force_std_comp_max:R:1:force_module_std:R:1:forces_realative_errors:R:1 energy=0.0 colvar.time=1926.0 colvar.coord_Co-Fe=904.521258 colvar.coord_Co-N=8.641718 colvar.coord_Fe-N=9.343207 colvar.dist_N-N=3.03884 colvar.walker=0 uncertainty=0.11675868 frame=1926 step=1 target_atoms="46 56 21 35 59 23 22 145 58 144" pbc="T T F"
Fe       0.00000000       0.00000000       0.00000000       0.03919479      -0.00514292       0.02779796      15.84042931      -0.15957069       0.00182316       0.00176934      27.33727264
Co       1.42150000       2.01030458       0.00000000       0.01365912       0.00817229       0.47343755      17.19504738       0.19504738       0.00084839       0.00058947     803.60827637
Fe       0.00000000       2.01030458       2.01030458       0.24775729      -0.01244605      -0.56945789      15.78993511      -0.21006489       0.00108915       0.00080598     770.67279053
Co       1.42150000       0.00000000       2.01030458       0.36130837       0.03239318       0.09906448      17.16551781       0.16551781       0.00267482       0.00272712     137.89230347