146
Lattice="11.372 0.0 0.0 0.0 12.061827473480129 0.0 0.0 0.0 30.051522894566773" Properties=species:S:1:pos:R:3:bader_charges:R:1:net_charges:R:1:force_std_comp_max:R:1:force_module_std:R:1:forces_realative_errors:R:1:momenta:R:3:forces:R:3 target_atoms="-1 -2" energy=0.0 pbc="T T T"
Fe       0.00000000       0.00000000       0.00000000      15.84258938      -0.15741062       0.00109270       0.00088621      26.82809448       0.00000000       0.00000000       0.00000000      -0.01068901      -0.00564843       0.02043853
Co       1.42150000       2.01030458       0.00000000      17.19536591       0.19536591       0.00104837       0.00104835     499.47866821       0.00000000       0.00000000       0.00000000       0.00187805       0.00284856       0.52361649
Fe       0.00000000       2.01030458       2.01030458      15.78654575      -0.21345425       0.00219184       0.00238274      94.72657776       0.00000000       0.00000000       0.00000000      -0.03930240      -0.05252555      -0.21595728
Co       1.42150000       0.00000000       2.01030458      17.17321968       0.17321968       0.00220738       0.00116924     145.20524597       0.00000000       0.00000000       0.00000000       0.08813447      -0.04555510      -0.13774678
Fe       0.06438281       0.02220232       4.04650754      15.80465221      -0.19534779       0.00673839       0.00305881     178.95301819       0.00000000       0.00000000       0.00000000      -0.47900850      -0.09579419      -0.24686217
Co       1.38314862       1.93160339       4.06903483      17.18769264       0.18769264       0.00335569       0.00217151     479.58203125       0.00000000       0.00000000       0.00000000       0.32320437       0.93598843      -0.32249224
Fe       0.03522670       2.01565338       6.18034498      15.80424881      -0.19575119       0.00680285       0.00618824     295.49853516       0.00000000       0.00000000       0.00000000       0.71621543       1.14542770      -1.23240864
Co       1.52843991       0.10732870       5.98337353      17.20733070       0.20733070       0.01232587       0.01148737     147.99076843       0.00000000       0.00000000       0.00000000      -1.25049329      -0.67932999       0.92991340
Fe       0.04435538       0.25234749       8.32029303      15.79277802      -0.20722198       0.02515020       0.02535784      78.65596008       0.00000000       0.00000000       0.00000000       0.07252281      -1.55368638      -1.24846935
Co       1.56280790       2.20502223       8.17716782      17.18839264       0.18839264       0.02143543       0.01515052      95.47434235       0.00000000       0.00000000       0.00000000      -0.81204313      -1.10417891      -0.46190116
Fe       0.11409610       2.17127107      10.10224451      15.83938694      -0.16061306       0.01199764       0.01167152      48.66925049       0.00000000       0.00000000       0.00000000      -0.23049445      -0.41831383       0.30730525
Co       1.39546657      12.03268097      10.15048460      16.98020935      -0.01979065       0.06351715       0.05058225      13.39612103       0.00000000       0.00000000       0.00000000       0.32873070      -0.59010756       0.00987824
Fe       0.00000000       4.02060916       0.00000000      15.83893299      -0.16106701       0.00092540       0.00058700      47.28219604       0.00000000       0.00000000       0.00000000      -0.00571705       0.01516420      -0.02250066
Co       1.42150000       6.03091374       0.00000000      17.19591904       0.19591904       0.00108612       0.00070369     678.99523926       0.00000000       0.00000000       0.00000000       0.01058203      -0.01442255       0.47746336
Fe       0.00000000       6.03091374       2.01030458      15.79389954      -0.20610046       0.00116828       0.00131119     443.71920776       0.00000000       0.00000000       0.00000000      -0.06102594       0.15424392      -0.55765271
Co       1.42150000       4.02060916       2.01030458      17.17559624       0.17559624       0.00171875       0.00064093     175.86932373       0.00000000       0.00000000       0.00000000      -0.05082369      -0.07182187      -0.07042295
Fe      11.28927097       4.06031344       4.00436879      15.79916191      -0.20083809       0.00269594       0.00156774     829.08636475       0.00000000       0.00000000       0.00000000       1.05602503      -0.54461741       0.52692157
Co       1.43412272       6.13447223       3.89193702      17.17335320       0.17335320       0.00405977       0.00344896     530.55786133       0.00000000       0.00000000       0.00000000       0.05063745      -0.84655535       1.62147999
Fe      11.24532643       5.98371551       6.05583772      15.81099796      -0.18900204       0.01379025       0.00654722     220.32635498       0.00000000       0.00000000       0.00000000       1.13503897       0.56827444       0.68510747
Co       1.50364549       4.17228511       6.09114679      17.17078590       0.17078590       0.00849364       0.00170155     906.59753418       0.00000000       0.00000000       0.00000000      -0.91052639      -1.17028475      -0.42539066
Fe      11.33023692       4.05011508       8.10481351      15.80383778      -0.19616222       0.02020809       0.01833276      68.37368774       0.00000000       0.00000000       0.00000000       0.56234920       0.99821466      -0.50819367
Co       1.62381454       6.03070312       8.13733418      17.12249374       0.12249374       0.01851956       0.01152373      99.57735443       0.00000000       0.00000000       0.00000000      -0.85286367       0.66438901      -0.38412124
Fe       0.15259209       6.39656460      10.00560935      15.65129089      -0.34870911       0.09831198       0.10715357      14.27039146       0.00000000       0.00000000       0.00000000      -0.17357744      -1.33484912       0.72333920
Co       1.49853717       4.20333541       9.87665707      17.20684242       0.20684242       0.01242974       0.01048899     115.74500275       0.00000000       0.00000000       0.00000000      -0.15911438      -0.24901620       1.17745948
Fe       0.00000000       8.04121832       0.00000000      15.84198761      -0.15801239       0.00167150       0.00083001     107.56007385       0.00000000       0.00000000       0.00000000       0.08675122       0.00160572       0.02089028
Co       1.42150000      10.05152289       0.00000000      17.19755554       0.19755554       0.00100813       0.00099614     468.90142822       0.00000000       0.00000000       0.00000000       0.04270322       0.01941874       0.46473047
Fe       0.00000000      10.05152289       2.01030458      15.79143238      -0.20856762       0.00323776       0.00120804     707.44317627       0.00000000       0.00000000       0.00000000       0.46301958      -0.06207449      -0.71562225
Co       1.42150000       8.04121832       2.01030458      17.14994812       0.14994812       0.00219112       0.00142466     192.30480957       0.00000000       0.00000000       0.00000000       0.01582943       0.23618874       0.13791308
Fe      11.32544362       8.06890715       4.17580444      15.81418610      -0.18581390       0.00980053       0.00589566     297.35351562       0.00000000       0.00000000       0.00000000       0.95196444      -0.14832856      -1.46458292
Co       1.43416865      10.06165958       4.10073884      17.20638466       0.20638466       0.00697169       0.00493399     119.02369690       0.00000000       0.00000000       0.00000000      -0.16018119      -0.31313688      -0.47022837
Fe       0.04353466      10.17207843       6.10213991      15.80849552      -0.19150448       0.02705894       0.01052554      78.61998749       0.00000000       0.00000000       0.00000000      -0.59859687      -0.54817152      -0.15831834
Co       1.25823961       7.97541795       6.16191582      17.15244484       0.15244484       0.02090702       0.02474646      44.86957932       0.00000000       0.00000000       0.00000000       1.07044578       0.29255497      -0.03554261
Fe      11.16469713       7.99832010       8.19739177      15.72283363      -0.27716637       0.05924412       0.04790625      44.43123627       0.00000000       0.00000000       0.00000000       1.47848499       0.98046458      -1.17456448
Co       1.33720193       9.98303994       7.98765079      17.02875328       0.02875328       0.02802843       0.02375822      59.08336258       0.00000000       0.00000000       0.00000000       0.31319907       0.62936467       1.21462691
Fe      11.02975641      10.12806100      10.42155179      15.42315102      -0.57684898       0.05690610       0.03508508      30.58084297       0.00000000       0.00000000       0.00000000       0.51383412      -0.37748078      -0.86022246
Co       1.69471116       8.27015289      10.00226955      16.77098846      -0.22901154       0.04765743       0.02175970      43.59569168       0.00000000       0.00000000       0.00000000      -0.57875824       0.36851606       0.65096390
Fe       2.84300000       0.00000000       0.00000000      15.84123898      -0.15876102       0.00134484       0.00111007      15.10848808       0.00000000       0.00000000       0.00000000       0.00444738      -0.00773563      -0.01412306
Co       4.26450000       2.01030458       0.00000000      17.19323158       0.19323158       0.00102867       0.00101642     518.44348145       0.00000000       0.00000000       0.00000000      -0.02104012       0.01666318       0.52627265
Fe       2.84300000       2.01030458       2.01030458      15.78763676      -0.21236324       0.00207290       0.00083777     277.54849243       0.00000000       0.00000000       0.00000000      -0.04771395      -0.17554902      -0.14480022
Co       4.26450000       0.00000000       2.01030458      17.17203522       0.17203522       0.00214157       0.00250502     104.19544220       0.00000000       0.00000000       0.00000000       0.11724561       0.03208163      -0.23097040
Fe       2.91153684      11.90623345       4.01543950      15.80920410      -0.19079590       0.00373848       0.00230006     615.11517334       0.00000000       0.00000000       0.00000000      -0.46445704       1.29022229      -0.34822023
Co       4.21952357       1.95325462       4.10463230      17.18323517       0.18323517       0.00242265       0.00264197     276.17376709       0.00000000       0.00000000       0.00000000       0.43634847      -0.04174076      -0.58329445
Fe       2.83764344       1.97215882       6.05292057      15.81721973      -0.18278027       0.00616879       0.00585307     198.51986694       0.00000000       0.00000000       0.00000000       0.31239921       1.09248900       0.24275640
Co       4.23785894       0.02199419       5.94722314      17.18935585       0.18935585       0.00996779       0.00732151     144.67337036       0.00000000       0.00000000       0.00000000       0.33109963       0.06615867       1.00390100
Fe       2.77854601       0.09777100       8.07874903      15.77625084      -0.22374916       0.01717819       0.00497789     145.53350830       0.00000000       0.00000000       0.00000000       0.24051341      -0.14746432       0.66687095
Co       4.29137128       2.05900065       8.12332157      17.14103317       0.14103317       0.00700875       0.00592838     133.95889282       0.00000000       0.00000000       0.00000000       0.32457221      -0.70903027      -0.15004756
Fe       2.85448644       1.94265359      10.21700464      15.80650711      -0.19349289       0.01443417       0.00949294      70.53825378       0.00000000       0.00000000       0.00000000       0.32785013       0.48786727      -0.32024127
Co       4.51501389       0.09091048      10.06827919      17.20254517       0.20254517       0.01485520       0.01417852      58.98485184       0.00000000       0.00000000       0.00000000      -0.80288553       0.23157498      -0.03101351
Fe       2.84300000       4.02060916       0.00000000      15.84050560      -0.15949440       0.00106438       0.00069841      55.77831650       0.00000000       0.00000000       0.00000000      -0.01918235       0.01058007      -0.03217549
Co       4.26450000       6.03091374       0.00000000      17.19396782       0.19396782       0.00112065       0.00101978     474.81375122       0.00000000       0.00000000       0.00000000       0.03682200      -0.01093972       0.48267919
Fe       2.84300000       6.03091374       2.01030458      15.79219151      -0.20780849       0.00210758       0.00115953     344.73855591       0.00000000       0.00000000       0.00000000       0.26278976       0.10258164      -0.28319049
Co       4.26450000       4.02060916       2.01030458      17.18103218       0.18103218       0.00240814       0.00272848      90.36869812       0.00000000       0.00000000       0.00000000      -0.08272210      -0.05490436      -0.22569291
Fe       2.84952995       3.93240365       4.01092313      15.80261707      -0.19738293       0.00366118       0.00163411     558.30834961       0.00000000       0.00000000       0.00000000      -0.23130380       0.80613637       0.35912204
Co       4.32211535       6.02340848       4.09859074      17.17044640       0.17044640       0.00567392       0.00487317     192.89065552       0.00000000       0.00000000       0.00000000      -0.74874622      -0.31221664      -0.47481117
Fe       2.91702138       5.97758898       6.08392601      15.81228065      -0.18771935       0.00457440       0.00059809    1811.31237793       0.00000000       0.00000000       0.00000000      -0.16527665       1.01057327      -0.35351166
Co       4.16477398       3.94289549       6.07659429      17.16650200       0.16650200       0.00850166       0.00418088     466.76382446       0.00000000       0.00000000       0.00000000       1.79366910       0.36521232      -0.67641115
Fe       2.98991104       4.00354145       8.10912466      15.81981850      -0.18018150       0.00647759       0.00769431     155.52143860       0.00000000       0.00000000       0.00000000      -0.54201365       0.96873873      -0.44684565
Co       4.36399565       6.03307586       8.05844819      17.16087341       0.16087341       0.00843713       0.00314077      97.78446960       0.00000000       0.00000000       0.00000000      -0.04370038       0.13332272       0.27295709
Fe       2.95976062       6.13079450      10.21786613      15.76899624      -0.23100376       0.04408947       0.01889995      32.79910660       0.00000000       0.00000000       0.00000000       0.23154825      -0.08519928      -0.56667161
Co       4.28676570       4.01791880       9.96568718      17.19668770       0.19668770       0.00648239       0.00525673     155.77583313       0.00000000       0.00000000       0.00000000       0.39206979       0.04391529       0.71753526
Fe       2.84300000       8.04121832       0.00000000      15.84427738      -0.15572262       0.00233931       0.00175689      41.60644531       0.00000000       0.00000000       0.00000000      -0.04940604      -0.00212323       0.05379340
Co       4.26450000      10.05152289       0.00000000      17.19537735       0.19537735       0.00111100       0.00109542     460.67758179       0.00000000       0.00000000       0.00000000      -0.02267036       0.00480148       0.50410259
Fe       2.84300000      10.05152289       2.01030458      15.78774357      -0.21225643       0.00231282       0.00082091     610.46856689       0.00000000       0.00000000       0.00000000      -0.13322473      -0.21928358      -0.43046328
Co       4.26450000       8.04121832       2.01030458      17.16793633       0.16793633       0.00206013       0.00229636      46.31133652       0.00000000       0.00000000       0.00000000      -0.07075995      -0.07584561      -0.02342014
Fe       2.89518329       8.10261802       4.16614425      15.80616951      -0.19383049       0.00504304       0.00108470    1232.14880371       0.00000000       0.00000000       0.00000000      -0.80992174      -0.51137578      -0.93205768
Co       4.34452743      10.02760400       3.95470965      17.19788933       0.19788933       0.00473012       0.00345314     213.98999023       0.00000000       0.00000000       0.00000000      -0.32677126       0.13668944       0.64849263
Fe       2.74410257      10.17404303       6.12759575      15.79975510      -0.20024490       0.01534891       0.00890225     157.33860779       0.00000000       0.00000000       0.00000000       0.67389202      -1.19451904      -0.28383410
Co       4.25051340       8.17880348       6.00810802      17.22195816       0.22195816       0.00861101       0.00682839     144.13368225       0.00000000       0.00000000       0.00000000       0.14545181      -0.65249830       0.72228569
Fe       2.99943244       8.03377248       8.15484792      15.81060410      -0.18939590       0.03867561       0.02927029      48.56865692       0.00000000       0.00000000       0.00000000      -0.47214496       0.44208458      -1.26526070
Co       4.17273953      10.26448134       8.14938595      17.19220924       0.19220924       0.02162121       0.01709354     111.79659271       0.00000000       0.00000000       0.00000000       0.59955156      -1.29321861      -1.27262425
Fe       3.21284171      10.18325074      10.18349031      15.62809849      -0.37190151       0.10999510       0.08510780       9.29579639       0.00000000       0.00000000       0.00000000      -0.56943607       0.14614490       0.52223629
Co       4.50405270       8.16771075       9.92421055      17.19341850       0.19341850       0.02397271       0.01558280      60.52866745       0.00000000       0.00000000       0.00000000      -0.51683795      -0.71290213       0.33713296
Fe       5.68600000       0.00000000       0.00000000      15.84722519      -0.15277481       0.00121947       0.00132203      42.88052368       0.00000000       0.00000000       0.00000000       0.05258013       0.00141645       0.02112528
Co       7.10750000       2.01030458       0.00000000      17.19731903       0.19731903       0.00108903       0.00075977     644.92822266       0.00000000       0.00000000       0.00000000      -0.03090197       0.02644006       0.48830402
Fe       5.68600000       2.01030458       2.01030458      15.78651524      -0.21348476       0.00172799       0.00164088     433.43292236       0.00000000       0.00000000       0.00000000      -0.16946459      -0.30918679      -0.61765969
Co       7.10750000       0.00000000       2.01030458      17.15522766       0.15522766       0.00161055       0.00085000     328.35949707       0.00000000       0.00000000       0.00000000       0.25187343       0.00602625      -0.12008224
Fe       5.75007181       0.03473094       4.01275717      15.80660915      -0.19339085       0.00188965       0.00107365     796.10131836       0.00000000       0.00000000       0.00000000      -0.46056592      -0.71458423      -0.08840115
Co       7.10111685       1.94320078       3.97308372      17.19668198       0.19668198       0.00496300       0.00508519     159.82084656       0.00000000       0.00000000       0.00000000       0.36949953      -0.22738625       0.68721843
Fe       5.89441662       1.91154075       6.13422912      15.80957127      -0.19042873       0.00388138       0.00223658    1126.69970703       0.00000000       0.00000000       0.00000000      -2.13398862       1.24604905      -0.49355793
Co       7.02244183      12.05192651       6.03735390      17.20475006       0.20475006       0.00689701       0.00754202     226.57591248       0.00000000       0.00000000       0.00000000       1.51424682      -0.76833308       0.19185226
Fe       5.65064446       0.03151444       8.05396363      15.79024792      -0.20975208       0.01130682       0.01221047      50.37369919       0.00000000       0.00000000       0.00000000       0.30925107      -0.52163327       0.10263611
Co       7.10856162       1.84699158       8.25115582      17.20633125       0.20633125       0.01853040       0.01960686     135.18550110       0.00000000       0.00000000       0.00000000       0.27643439       1.98376632      -1.73599362
Fe       5.93208087       2.04692765      10.04918931      15.85251141      -0.14748859       0.01030958       0.00840995     300.69973755       0.00000000       0.00000000       0.00000000      -1.97429943      -0.23512532       1.56265104
Co       7.22091253      11.97207627      10.09296502      17.15432358       0.15432358       0.01150833       0.01142494     117.02091217       0.00000000       0.00000000       0.00000000      -0.79760218       1.06605172      -0.12095001
Fe       5.68600000       4.02060916       0.00000000      15.84086418      -0.15913582       0.00192127       0.00191778      31.08045769       0.00000000       0.00000000       0.00000000      -0.00192894       0.00768011      -0.05906050
Co       7.10750000       6.03091374       0.00000000      17.19874954       0.19874954       0.00110793       0.00109789     494.95077515       0.00000000       0.00000000       0.00000000      -0.00330658       0.00078524       0.54339129
Fe       5.68600000       6.03091374       2.01030458      15.78733730      -0.21266270       0.00262861       0.00265633     152.18386841       0.00000000       0.00000000       0.00000000      -0.14311816      -0.07971523      -0.36956316
Co       7.10750000       4.02060916       2.01030458      17.17754936       0.17754936       0.00278021       0.00309612     138.51261902       0.00000000       0.00000000       0.00000000       0.18775629       0.00852895      -0.38546836
Fe       5.72637909       3.83795802       3.92369353      15.81653500      -0.18346500       0.00387365       0.00247546     792.16046143       0.00000000       0.00000000       0.00000000      -0.83817255       1.16002882       1.34057641
Co       6.92783469       5.96578614       4.11509785      17.18114853       0.18114853       0.00795334       0.00781942     334.51907349       0.00000000       0.00000000       0.00000000       2.19683790      -0.12968791      -1.41391230
Fe       5.82356762       6.24778366       6.01808875      15.82490158      -0.17509842       0.01032135       0.00441204     542.07116699       0.00000000       0.00000000       0.00000000      -1.49170017      -1.54472446       1.05281556
Co       7.07627881       3.99977629       6.01843282      17.22552109       0.22552109       0.00501545       0.00422408      35.92482758       0.00000000       0.00000000       0.00000000      -0.13189815       0.07311379      -0.01572562
Fe       5.72878195       4.05597064       8.06016364      15.78978825      -0.21021175       0.00904237       0.01039619      65.80107880       0.00000000       0.00000000       0.00000000      -0.34346759      -0.17309430      -0.56565261
Co       7.17578117       6.12160959       8.20927080      17.15475845       0.15475845       0.02373895       0.01380071      61.53281403       0.00000000       0.00000000       0.00000000       0.05922754      -0.75899369      -0.37538862
Fe       5.73322246       6.01970918      10.13990893      15.83390427      -0.16609573       0.01681415       0.01287841      32.53693008       0.00000000       0.00000000       0.00000000      -0.37432557       0.17878392      -0.05684900
Co       7.07764073       4.02186805       9.91198214      17.28591156       0.28591156       0.01092851       0.00467347     202.32356262       0.00000000       0.00000000       0.00000000       0.54185879       0.17228511       0.75535834
Fe       5.68600000       8.04121832       0.00000000      15.84321499      -0.15678501       0.00078607       0.00016141     439.14605713       0.00000000       0.00000000       0.00000000      -0.06089746       0.00496424      -0.03591574
Co       7.10750000      10.05152289       0.00000000      17.19549751       0.19549751       0.00077222       0.00077422     583.48193359       0.00000000       0.00000000       0.00000000       0.01369196      -0.01930271       0.45112213
Fe       5.68600000      10.05152289       2.01030458      15.78946686      -0.21053314       0.00151470       0.00057099    1123.37768555       0.00000000       0.00000000       0.00000000       0.20151952       0.01896873      -0.60865599
Co       7.10750000       8.04121832       2.01030458      17.18243790       0.18243790       0.00246738       0.00187213     286.30978394       0.00000000       0.00000000       0.00000000      -0.14925250      -0.14541179      -0.49383873
Fe       5.70287010       7.99281293       4.00343990      15.80558205      -0.19441795       0.00467461       0.00475796     165.26359558       0.00000000       0.00000000       0.00000000       0.01140109       0.78194022      -0.08199831
Co       7.21678848      10.06117664       3.92889442      17.17643356       0.17643356       0.00412351       0.00309234     453.37875366       0.00000000       0.00000000       0.00000000      -0.81556237       0.04072949       1.13964975
Fe       5.55596810      10.12685305       6.04011722      15.80467987      -0.19532013       0.00845859       0.00869939     147.06712341       0.00000000       0.00000000       0.00000000       1.21312225      -0.40534732      -0.02860138
Co       7.20354493       8.15472273       5.90406023      17.19246483       0.19246483       0.00681568       0.00453890     110.71979523       0.00000000       0.00000000       0.00000000      -0.44782314       0.03218100       0.22567393
Fe       5.80270934       7.94616962       7.95315769      15.79216385      -0.20783615       0.01259675       0.00378840     498.39059448       0.00000000       0.00000000       0.00000000      -0.35451370       1.79430175       0.46847516
Co       7.32503344      10.07003143       7.95417658      17.15105820       0.15105820       0.02996305       0.03032631      72.98076630       0.00000000       0.00000000       0.00000000      -2.15870404       0.48584414       0.04822653
Fe       5.74344025      10.12696815       9.96683496      15.83655071      -0.16344929       0.01565602       0.01444800      58.74151611       0.00000000       0.00000000       0.00000000       0.81691432      -0.21197028       0.08744471
Co       7.11077837       8.07475100      10.00742022      17.14007568       0.14007568       0.02275549       0.01091041      39.99127579       0.00000000       0.00000000       0.00000000      -0.08793659      -0.24029556      -0.35261384
Fe       8.52900000       0.00000000       0.00000000      15.84669304      -0.15330696       0.00122581       0.00042380      84.84293365       0.00000000       0.00000000       0.00000000       0.02216593      -0.00770088       0.02720817
Co       9.95050000       2.01030458       0.00000000      17.19596863       0.19596863       0.00082664       0.00081400     610.27679443       0.00000000       0.00000000       0.00000000       0.00602363       0.01982225       0.49633357
Fe       8.52900000       2.01030458       2.01030458      15.79327679      -0.20672321       0.00344540       0.00062965    1396.51647949       0.00000000       0.00000000       0.00000000      -0.08204080      -0.29447988      -0.82445955
Co       9.95050000       0.00000000       2.01030458      17.15643883       0.15643883       0.00210075       0.00086600     138.79035950       0.00000000       0.00000000       0.00000000       0.04474965       0.10253992      -0.04386620
Fe       8.65885080      12.00706752       4.18480603      15.80832577      -0.19167423       0.00567512       0.00549748     222.17500305       0.00000000       0.00000000       0.00000000      -0.84391266       0.32313174      -0.82170779
Co       9.82164456       1.99556009       3.98504650      17.18405724       0.18405724       0.00449590       0.00239324     798.08776855       0.00000000       0.00000000       0.00000000       1.66371977      -0.32635751       0.87958443
Fe       8.48241128       2.03752942       6.23016306      15.80218124      -0.19781876       0.00815206       0.00436565     385.73580933       0.00000000       0.00000000       0.00000000       0.31708720      -0.20919457      -1.64056051
Co      10.11336117       0.15870665       6.07736131      17.20304298       0.20304298       0.00891056       0.00481955     320.28775024       0.00000000       0.00000000       0.00000000      -0.97373641      -1.09817803       0.47808120
Fe       8.51678469       0.14905021       8.16100518      15.79431725      -0.20568275       0.01297548       0.00663796     319.40911865       0.00000000       0.00000000       0.00000000       0.97208166      -1.61275268      -0.97421503
Co       9.98428197       2.09388913       7.99189803      17.19509697       0.19509697       0.00989676       0.00953054     183.17416382       0.00000000       0.00000000       0.00000000      -0.38280770       0.30337188       1.67599285
Fe       8.56396415       2.02297291      10.10566241      15.81332111      -0.18667889       0.01289446       0.01077656      91.73220825       0.00000000       0.00000000       0.00000000       0.45435053       0.79586518       0.37046951
Co       9.86596249       0.07351970      10.06597442      17.21588898       0.21588898       0.04825810       0.01824870      29.84202766       0.00000000       0.00000000       0.00000000       0.44910887       0.10894980       0.28265613
Fe       8.52900000       4.02060916       0.00000000      15.84296894      -0.15703106       0.00088725       0.00088290      83.82674408       0.00000000       0.00000000       0.00000000       0.01129633      -0.01031208      -0.07240443
Co       9.95050000       6.03091374       0.00000000      17.19718552       0.19718552       0.00109166       0.00035162    1464.32885742       0.00000000       0.00000000       0.00000000      -0.04506821      -0.00387461       0.51288939
Fe       8.52900000       6.03091374       2.01030458      15.78332520      -0.21667480       0.00224343       0.00165081     133.57070923       0.00000000       0.00000000       0.00000000      -0.12920961      -0.16350257      -0.07201055