52
Lattice="10.638 0.0 0.0 0.0 10.03 0.0 0.0 0.0 30.0" Properties=species:S:1:pos:R:3:forces:R:3 energy=-63893.06534742232 pbc="T T T"
C        8.95325000       9.43303000       6.18533000       0.29284724       0.82967736       0.33102762
O        9.94421000       0.20410000       5.87193000      -2.22632848      -1.86249613       0.31299853
O        7.91109000       9.07506000       5.45505000       1.49511310       0.49439559       1.74418317
H        8.96907000       9.03969000       7.26090000      -0.06978234       0.27549228      -1.15832877
Cu      10.23090000      10.01549650       3.93173000       0.83769458       0.61874705      -0.18975110
Cu      10.36612000       2.55818000       4.07418000       0.33729598      -0.16918792      -0.69758225
Cu       0.05470000       4.99267000       3.86687000      -0.34415928       0.14150998      -0.09692189
Cu      10.52500000       7.43673000       3.92411000      -0.28109781       0.44236827       0.23770836
Cu       3.54666000       9.89341000       3.81488000      -0.32702750       1.40245513      -0.27828193
Cu       3.26606000       2.75057000       3.91108000       0.80697400      -1.00836088       0.14389442
Cu       3.43869000       5.25550000       3.96232000       0.01515820      -0.41679863      -0.38649714
Cu       3.70171000       7.62972000       3.72219000      -0.51079101      -1.11386718       0.08292737
Cu       6.99735000       0.11675200       4.04456000      -0.19908318       0.03013489      -1.13335821
Cu       7.05535000       2.55046000       3.70741000      -0.27730954      -0.16333917       0.08847530
Cu       7.17224000       5.12071000       3.93719000       0.15696232      -0.66900031       0.03310194
Cu       7.27511000       7.53073000       4.07879000      -0.22534289       0.24712580      -0.48412609
Cu       1.61944000       1.26154000       2.63598000       0.26783811       0.31532229       0.40681915
Cu       1.77525000       3.85060000       2.59831000      -0.45275193       0.09420475      -0.17054135
Cu       1.66787000       6.52749000       2.65320000       0.76364163      -1.04681535       0.15071968
Cu       1.45748000       8.91623000       2.83813000       0.75273964      -0.18359073      -0.29556335
Cu       5.15561000       1.16862000       2.53318000       0.41481837       0.69801368       0.63436908
Cu       5.19163000       3.82037000       2.80822000       0.14937293      -0.48520235      -0.21941033
Cu       5.57348000       6.15513000       2.57241000      -0.63252251       0.92245618       0.30822193
Cu       5.32466000       8.70251000       2.47941000       1.00108620       0.36420412       0.45735832
Cu       8.80725000       1.29132000       2.35654000       0.01756630       0.38028792       1.07977176
Cu       8.77655000       3.78713000       2.67853000       0.55617666       0.19934543      -0.41873725
Cu       8.87955000       6.36779000       2.61019000      -0.11183275      -0.80356523      -0.05372888
Cu       8.79501000       8.87026000       2.48124000      -0.04056791      -0.40993481       0.17846703
Cu      10.63390921       9.97932450       1.13906000      -0.02480859       0.63173678       0.40133241
Cu       0.03999850       2.57600000       1.27888000      -0.37800376      -0.49611874      -0.09519617
Cu       0.04062460       4.99253000       1.28540000      -0.43323879       0.51998065      -0.23336680
Cu      10.62556800       7.49967000       1.23903000      -0.17150551       0.22523954      -0.35877549
Cu       3.62835000       9.96163000       1.15229000      -1.16278604       0.73749505       0.17462478
Cu       3.42568000       2.57651000       1.07502000       1.02790539      -0.41949058       0.97583590
Cu       3.55952000       5.15384000       1.42376000       0.01869913      -0.34136706      -0.56069049
Cu       3.49089000       7.57089000       1.19616000       0.26480677      -0.37822641      -0.02678217
Cu       7.05716000       0.02197070       1.15159000      -0.08801096      -0.17900902       0.28743558
Cu       6.91510000       2.45885000       1.11781000       1.00480659       0.66516474       0.63749966
Cu       7.23785000       4.95081000       1.12195000      -1.11226230       0.25528032       0.41168625
Cu       7.16696000       7.55474000       1.25532000      -0.46473019      -0.41797723      -0.36878532
Cu       1.77300000       1.25370000       0.00000000      -0.20434880      -0.34222890       0.03034674
Cu       1.77300000       3.76110000       0.00000000      -0.28765772       0.54187103      -0.22259541
Cu       1.77300000       6.26850000       0.00000000       0.00282616      -0.03330711       0.17720205
Cu       1.77300000       8.77590000       0.00000000      -0.08310375       0.06972835       0.00971055
Cu       5.31900000       1.25370000       0.00000000      -0.74579663      -0.14872450      -0.59383356
Cu       5.31900000       3.76110000       0.00000000      -0.48258188       0.41847859       0.10888215
Cu       5.31900000       6.26850000       0.00000000       0.11015845       0.02749899       0.33426207
Cu       5.31900000       8.77590000       0.00000000       0.26792655      -0.32764971      -0.40936197
Cu       8.86500000       1.25370000       0.00000000       0.07246195       0.13328399      -0.52876663
Cu       8.86500000       3.76110000       0.00000000       0.48870934      -0.45295710      -0.05278940
Cu       8.86500000       6.26850000       0.00000000       0.36367191       0.09259729      -0.12100491
Cu       8.86500000       8.77590000       0.00000000      -0.02048142       0.01504765      -0.39003190
52
Lattice="10.638 0.0 0.0 0.0 10.03 0.0 0.0 0.0 30.0" Properties=species:S:1:pos:R:3:forces:R:3 energy=-63893.04380319132 pbc="T T T"
C        8.95115462       9.42222258       6.17623245       0.57874941       0.97565850       1.12038390
O        9.94127566       0.19884671       5.87401160      -2.14017489      -1.84866668       0.17577920
O        7.91593573       9.07559860       5.45966182       1.07866516       0.30024482       1.40638789
H        8.96690992       9.04303091       7.27371139      -0.07071000       0.30193866      -1.49725688
Cu      10.23812179      10.01453524       3.93269657       0.75586559       0.62927161      -0.17815902
Cu      10.37231575       2.56828794       4.08146293       0.31986749      -0.26807465      -0.72952771
Cu       0.06440444       4.99589846       3.86069026      -0.34075462       0.13611889      -0.02093496
Cu      10.52838046       7.43691530       3.93350196      -0.38548104       0.42498400       0.14038487
Cu       3.55932712       9.90043433       3.82381578      -0.31645306       1.34944924      -0.23675808
Cu       3.27000063       2.75453215       3.90719121       0.82467605      -1.02891121       0.15154294
Cu       3.43974263       5.26182269       3.96289280       0.01156328      -0.44367079      -0.37670895
Cu       3.70440718       7.62997319       3.72210595      -0.54005840      -1.07376309       0.10831240
Cu       6.99888053       0.10833680       4.03822573      -0.20595523       0.14411862      -1.17316867
Cu       7.04378602       2.55868235       3.70662447      -0.17591136      -0.27695061       0.10799924
Cu       7.15767152       5.11913653       3.93948081       0.15613699      -0.68549189       0.03798292
Cu       7.27026108       7.53580792       4.06764782      -0.17829888       0.19523578      -0.49518183
Cu       1.60783947       1.25228434       2.63489898       0.25994739       0.33427133       0.39996253
Cu       1.78173272       3.84438899       2.59774132      -0.52347221       0.09944980      -0.20140129
Cu       1.66573083       6.52935116       2.66452107       0.79554544      -1.06107058       0.02724394
Cu       1.45918135       8.91140399       2.84111692       0.78320825      -0.18944411      -0.28472255
Cu       5.14701229       1.17624463       2.53473396       0.44597964       0.69050194       0.62215428
Cu       5.19251585       3.82077431       2.80432711       0.13305979      -0.46348629      -0.20455963
Cu       5.58457996       6.15615378       2.57033652      -0.80628648       0.94721231       0.28038407
Cu       5.32025686       8.70270124       2.48818064       0.99673332       0.41014513       0.42434225
Cu       8.81185125       1.29099460       2.35309467       0.00513552       0.40939180       1.14408485
Cu       8.77938834       3.78109550       2.68431324       0.50912288       0.19032600      -0.41850585
Cu       8.87864175       6.35368447       2.60610411      -0.11046801      -0.59681913      -0.00351007
Cu       8.79598686       8.87865552       2.47020850      -0.00062581      -0.55260179       0.18433430
Cu      10.63744845       9.98248928       1.13766105      -0.01409736       0.59951468       0.38650948
Cu       0.03422488       2.57879762       1.26465011      -0.28313772      -0.54112284      -0.10968691
Cu       0.02830971       4.98647921       1.29181603      -0.24865561       0.55969753      -0.24657559
Cu      10.62713349       7.50556443       1.23682611      -0.16773833       0.18868460      -0.30234181
Cu       3.63440236       9.96957722       1.14079641      -1.18016516       0.68939431       0.24739371
Cu       3.42657065       2.58373882       1.06490238       1.04630010      -0.50430771       1.02309177
Cu       3.55887448       5.13715379       1.43525526       0.03681101      -0.18537611      -0.56315001
Cu       3.48794724       7.56639350       1.19704588       0.28006782      -0.37838376      -0.00906983
Cu       7.05673592       0.02129328       1.15049746      -0.11222870      -0.15205717       0.29809743
Cu       6.91287711       2.45347320       1.12443291       1.01955085       0.67324623       0.65142064
Cu       7.23135033       4.94881296       1.12238942      -1.07666279       0.25238886       0.39628636
Cu       7.16202020       7.56350509       1.25304469      -0.45110385      -0.47934486      -0.36695521
Cu       1.77300000       1.25370000       0.00000000      -0.19683552      -0.33524938       0.02126509
Cu       1.77300000       3.76110000       0.00000000      -0.33417106       0.58322673      -0.23736949
Cu       1.77300000       6.26850000       0.00000000      -0.01176537      -0.06199035       0.21951986
Cu       1.77300000       8.77590000       0.00000000      -0.06093826       0.07224083       0.00869959
Cu       5.31900000       1.25370000       0.00000000      -0.71705220      -0.12939597      -0.62073503
Cu       5.31900000       3.76110000       0.00000000      -0.45172040       0.41079922       0.10143469
Cu       5.31900000       6.26850000       0.00000000       0.08427103       0.02027007       0.34998489
Cu       5.31900000       8.77590000       0.00000000       0.26201198      -0.34487456      -0.40117815
Cu       8.86500000       1.25370000       0.00000000       0.05812084       0.13042801      -0.54958383
Cu       8.86500000       3.76110000       0.00000000       0.43499588      -0.44094130      -0.05604956
Cu       8.86500000       6.26850000       0.00000000       0.33756800       0.09395329      -0.09655217
Cu       8.86500000       8.77590000       0.00000000      -0.00946321       0.01892898      -0.41835724
52
Lattice="10.638 0.0 0.0 0.0 10.03 0.0 0.0 0.0 30.0" Properties=species:S:1:pos:R:3:forces:R:3 energy=-63892.70226919376 pbc="T T T"
C        8.93781139       9.37928798       6.19506574      -1.58465180      -0.49848210       2.77829418
O        9.86171964       0.08545772       5.88019723       2.43551764       1.26239370      -1.09063571
O        7.95167863       9.03767927       5.47645952      -0.91007734      -0.53204993       0.05269890
H        8.96392237       9.13844557       7.32592186      -0.49458688      -0.35216056      -1.21819076
Cu      10.34153070       9.96907178       3.96959259       0.33750475       0.92645939      -0.31955536
Cu      10.42936031       2.68693588       4.12208819       0.49663657      -0.74884339      -0.63657714
Cu       0.14684682       5.01626221       3.79286081      -0.40085624       0.28710236       0.19446290
Cu      10.57663175       7.47719252       4.00798988      -0.59810674      -0.12519530      -0.28306316
Cu       3.62856150       9.99357488       3.86104249      -0.67198485       0.47770655      -0.11525232
Cu       3.30806589       2.78146465       3.88072511       0.66090699      -1.22699577       0.27955206
Cu       3.45406583       5.29790305       3.94809613       0.06123188      -0.63420659      -0.05331288
Cu       3.69948449       7.62097965       3.72820027      -0.41077299      -0.25295758       0.20547854
Cu       6.98955259       0.02307442       3.92840946       0.02541074       0.54645274      -0.60933424
Cu       6.92738387       2.62577391       3.72569478       0.65116302      -0.96644469       0.33790636
Cu       7.01397925       5.05576793       3.98334855       0.68829542      -0.13177115       0.06406575
Cu       7.20564322       7.57935023       3.93342332       0.10457658      -0.18951713      -0.35111155
Cu       1.51398837       1.18935460       2.64647431       0.64544077       0.93330675       0.50955894
Cu       1.80465487       3.76819697       2.57012791      -1.24548715       0.10094721      -0.23705376
Cu       1.71573287       6.54277719       2.74607910       0.46395834      -1.19411906      -0.54529831
Cu       1.54614761       8.85966634       2.86039993       0.79530941       0.30537623      -0.22663205
Cu       5.09417027       1.26880851       2.59813117       0.58742843       0.35425601       0.06883463
Cu       5.21798807       3.80055922       2.79121205      -0.30424803       0.14791615      -0.34226952
Cu       5.62505887       6.20037306       2.53588547      -1.17037234       0.78195458       0.20594031
Cu       5.32269738       8.71881653       2.54582967       0.59542508       0.65157954      -0.16982658
Cu       8.83232823       1.30765845       2.36581422      -0.05872968       0.23489969       1.23049813
Cu       8.83141762       3.73679869       2.71066785      -0.26234263       0.43624133      -0.14340694
Cu       8.88538602       6.23178301       2.57347050      -0.17415941       0.31300007       0.48684014
Cu       8.84211496       8.94159305       2.38722044      -0.17008935      -0.95003487       0.74521247
Cu       0.03456990      10.01053288       1.18639397      -0.15682605       0.23126312      -0.13378998
Cu      10.60990971       2.58454571       1.12369237       0.20794886      -0.97568986       0.35980137
Cu      10.54783906       4.91486733       1.29006588       0.55909846       1.16545279      -0.28220081
Cu       0.01725104       7.54597622       1.21009905      -0.06271438      -0.39814270       0.14153929
Cu       3.62214536       0.00340149       1.06093932      -0.97425056       0.09941740       0.71141068
Cu       3.49949281       2.61460411       1.02466642       0.44101535      -0.87417958       0.77414305
Cu       3.56368210       4.97376092       1.53925981       0.06770489       1.02173937      -1.29537686
Cu       3.44729117       7.52934821       1.21008037       0.48091375      -0.03192026       0.11837261
Cu       7.02235539      10.01713745       1.12206893       0.18146906       0.23440398       0.41414011
Cu       6.92681433       2.40469693       1.21753375       0.65230613       0.96338199       0.23861031
Cu       7.14598006       4.95661154       1.13929469      -0.22760444      -0.09625546       0.23175369
Cu       7.11793747       7.62267927       1.21728643       0.15115985      -0.94113371      -0.03714166
Cu       1.77300000       1.25370000       0.00000000      -0.10988848      -0.13876610       0.00754619
Cu       1.77300000       3.76110000       0.00000000      -0.29262407       0.59455244      -0.18125154
Cu       1.77300000       6.26850000       0.00000000      -0.10658461      -0.29769891       0.39421611
Cu       1.77300000       8.77590000       0.00000000      -0.00028025       0.13128213      -0.07537038
Cu       5.31900000       1.25370000       0.00000000      -0.35490701       0.06165817      -0.66613096
Cu       5.31900000       3.76110000       0.00000000      -0.04021259       0.29521985       0.01949668
Cu       5.31900000       6.26850000       0.00000000      -0.16306663       0.00055947       0.35402204
Cu       5.31900000       8.77590000       0.00000000      -0.13385375      -0.39897060      -0.40111284
Cu       8.86500000       1.25370000       0.00000000      -0.13020535      -0.04893840      -0.51611885
Cu       8.86500000       3.76110000       0.00000000      -0.36336080      -0.26863978      -0.20738219
Cu       8.86500000       6.26850000       0.00000000       0.11341707       0.11160495       0.03548895
Cu       8.86500000       8.77590000       0.00000000       0.15333809       0.07842948      -0.64362197
52
Lattice="10.638 0.0 0.0 0.0 10.03 0.0 0.0 0.0 30.0" Properties=species:S:1:pos:R:3:forces:R:3 energy=-63891.77214755988 pbc="T T T"
C        8.86547366       9.35240968       6.32783292      -0.03546581       1.65276859      -6.35679572
O        9.86199030      10.00609890       5.84956248       0.70487339      -0.01374769       1.34583529
O        7.94525594       9.01274872       5.47041411      -0.39655376      -0.75834053       2.26964130
H        8.92844161       9.28141238       7.34817831      -0.76953872      -0.91118548       3.04573891
Cu      10.48089263       9.93939987       4.04158318      -0.13101988       0.68827691      -0.61911060
Cu      10.51697287       2.75757772       4.04759628       0.50388605      -1.14551953      -0.26292421
Cu       0.25222091       5.03067740       3.71687173      -0.94419435       0.53680956       0.81574866
Cu      10.61577518       7.52921108       4.08225698      -0.46209532      -0.40589818      -0.66462429
Cu       3.64171058       0.06724934       3.88116449      -0.61545809      -0.05666817      -0.22804924
Cu       3.32082335       2.77895562       3.85121435       0.43490384      -0.97443876       0.16808492
Cu       3.43040481       5.26000501       3.86957242       0.29979745      -0.57730291       0.66842233
Cu       3.68737996       7.61186755       3.71912557      -0.13462148       0.16529064       0.41477055
Cu       7.00190657      10.00903832       3.77853233       0.49492010       0.89201944       0.14086361
Cu       6.88555450       2.65178245       3.79000989       1.17003552      -1.37652194       0.53535740
Cu       6.91228915       5.01298151       4.04872322       0.55184126       0.52518045      -0.37231956
Cu       7.10133029       7.58915964       3.79285892       0.89736734      -0.46711309       0.29465627
Cu       1.48276131       1.19425047       2.67837738       0.98806613       1.05740367       0.49047928
Cu       1.73056839       3.72485968       2.51500650      -0.56823514      -0.28630892      -0.32755715
Cu       1.74290442       6.51563060       2.76487420       0.01071225      -0.75904964      -0.84028625
Cu       1.68783575       8.83575579       2.85843394       0.23017246       0.36738407      -0.28487322
Cu       5.11847293       1.34836695       2.65164144       0.44078549      -0.22759724      -0.19755748
Cu       5.26067473       3.78656254       2.74137128      -0.08205525       0.33589112      -0.26657775
Cu       5.56637911       6.29694926       2.47493267      -1.04601059      -0.26621574       0.56372233
Cu       5.38809611       8.75199950       2.62293740      -0.72698849       0.59138227      -0.79259535
Cu       8.89153755       1.38185378       2.47799217      -0.06825254      -0.61049175       0.68086030
Cu       8.83454199       3.71497441       2.72679192      -0.56453069       0.67479712      -0.08607286
Cu       8.90147029       6.14231935       2.59606150      -0.38555817       0.82278937       0.45615556
Cu       8.88390802       8.96059317       2.34258220       0.08845730      -0.78453700       1.25364578
Cu       0.10177744       0.02279901       1.25027615      -0.63636271      -0.27806647      -0.44035561
Cu      10.53716958       2.49793583       0.98158515       1.02753515      -0.08158423       0.85417536
Cu      10.51206005       4.89904195       1.29050757       0.94336234       0.72119682      -0.54122671
Cu       0.02145078       7.54292541       1.17840963      -0.02214132      -0.32004489       0.29600507
Cu       3.53636649       0.01905877       1.00130377      -0.09926725      -0.02130057       1.06790612
Cu       3.58342761       2.58644499       1.00592946      -0.46920545      -1.08767020       0.72582172
Cu       3.59090229       4.84797091       1.60619166      -0.45079789       1.71369296      -1.99528853
Cu       3.43839929       7.48729213       1.25743046       0.65073467       0.06752800      -0.25175739
Cu       6.98592336       9.95800262       1.09581778       0.60178188       1.10687686       0.51623558
Cu       6.94001028       2.38943775       1.28407619       0.67398980       0.72326296      -0.02860662
Cu       7.08189298       4.93944008       1.18574828       0.30093902       0.05259142      -0.01077601
Cu       7.13194154       7.62378392       1.19627125       0.13110781      -1.20012413      -0.09749062
Cu       1.77300000       1.25370000       0.00000000      -0.08898592       0.11756580      -0.19853142
Cu       1.77300000       3.76110000       0.00000000      -0.14304904       0.38074558      -0.03015391
Cu       1.77300000       6.26850000       0.00000000      -0.07848604      -0.35927686       0.41223081
Cu       1.77300000       8.77590000       0.00000000      -0.07512201      -0.05787247      -0.14412325
Cu       5.31900000       1.25370000       0.00000000      -0.12112832      -0.07538272      -0.58350441
Cu       5.31900000       3.76110000       0.00000000       0.21957385       0.29772822      -0.15113260
Cu       5.31900000       6.26850000       0.00000000      -0.23695914       0.00084435       0.22136745
Cu       5.31900000       8.77590000       0.00000000      -0.57704888      -0.45474813      -0.32666806
Cu       8.86500000       1.25370000       0.00000000      -0.67241577      -0.51956876      -0.28638040
Cu       8.86500000       3.76110000       0.00000000      -0.87481001      -0.01883900      -0.30019957
Cu       8.86500000       6.26850000       0.00000000      -0.03522464       0.00098576       0.13263144
Cu       8.86500000       8.77590000       0.00000000       0.35083284       0.19060213      -0.78858495
52
Lattice="10.638 0.0 0.0 0.0 10.03 0.0 0.0 0.0 30.0" Properties=species:S:1:pos:R:3:forces:R:3 energy=-63891.9832287696 pbc="T T T"
C        8.81781583       9.36200757       6.27046953       3.79200039       1.71992634       2.54485796
O        9.97777118       9.85636862       5.85194293      -1.44925385      -0.53055200       1.53127208
O        7.91908692       8.98215548       5.54699413      -2.40900492      -0.69072512      -0.49922412
H        8.85265408       9.38454145       7.50561280      -0.68565798      -0.32169143      -2.62383252
Cu      10.57172056       9.95869072       4.10598995       0.18808091       0.61029480      -1.36484707
Cu      10.58655374       2.75284129       3.94912588      -0.00766600      -0.96923382       0.11481678
Cu       0.30262152       5.06267701       3.69161853      -1.44976293       0.36924966       1.23556937
Cu      10.62063077       7.53884175       4.11283060      -0.21669267      -0.35154144      -0.95180636
Cu       3.64201848       0.16171574       3.91293734      -0.40412772      -0.19335630      -0.19941999
Cu       3.34974593       2.69433251       3.76269818       0.12550229      -0.38033266       0.01636251
Cu       3.39813062       5.16637027       3.83810037       0.16533178      -0.17148546       0.71508016
Cu       3.72471547       7.60799482       3.73841091      -0.18781197       0.03607465       0.61664852
Cu       7.03464350       0.02887611       3.68025488       0.86349664       0.91687739       0.46839556
Cu       6.88569981       2.61027356       3.90737718       0.87355223      -0.49532633       0.16337671
Cu       6.87105778       5.06902542       4.06449524       0.44680754       0.21614143      -0.45207933
Cu       7.01673634       7.59797601       3.70901587       1.35062475      -0.34707903       0.88294447
Cu       1.49849095       1.25219598       2.74388951       0.82434644      -0.02105940       0.05388778
Cu       1.59245399       3.65619318       2.45706409       0.73552867      -0.04598471      -0.51615639
Cu       1.73475714       6.46598188       2.71589188       0.45474042       0.03085479      -0.74628925
Cu       1.81085560       8.82543815       2.84283966      -0.24022650       0.45267171      -0.36799239
Cu       5.18049103       1.39827627       2.63193581       0.23712472      -0.91370568      -0.07298748
Cu       5.27409353       3.77350579       2.68913755       0.70669887       0.23757518       0.29073842
Cu       5.47189121       6.36075253       2.49613744      -0.71033750      -0.94980964       0.14255488
Cu       5.40441741       8.83696995       2.64145800      -1.30454696       0.45387704      -0.98671322
Cu       8.93704832       1.38491201       2.56771872      -0.08531027      -0.59851246       0.37469629
Cu       8.78312300       3.73813936       2.73820861      -0.28931197       0.51238664       0.01303601
Cu       8.89403451       6.14737332       2.62471808      -0.11706958       0.69256963       0.42551519
Cu       8.93085883       8.94827671       2.35924458       0.01240866      -0.56523826       1.19928698
Cu       0.12299722       0.03450974       1.23099960      -0.60266017      -0.49382841       0.07321785
Cu      10.50904441       2.42546428       0.88162621       1.62860946       0.73597964       1.17373226
Cu      10.52022961       4.91265545       1.22808639       0.64555287       0.58907085      -0.26987545
Cu       0.00691842       7.52107766       1.18081272       0.09851032      -0.01515460       0.26398556
Cu       3.47072318       0.04045357       0.98886029       0.60998421      -0.66096715       1.19784202
Cu       3.60575808       2.45304823       1.02521634      -0.86872884       0.22829504       0.53581351
Cu       3.62207558       4.77682481       1.58096317      -1.08482090       1.55389728      -2.00210504
Cu       3.49875247       7.46197014       1.33441606       0.33442199       0.29497971      -0.78332961
Cu       7.00267176       9.94505131       1.12464103       0.52157062       0.79747480       0.29134828
Cu       6.98987039       2.40418195       1.30839189       0.56418822       0.35843148      -0.16234004
Cu       7.12867624       4.86860906       1.18714763      -0.23631585       0.71920112       0.20540501
Cu       7.20427386       7.53759074       1.22857819      -0.38278498      -0.48904667      -0.20711376
Cu       1.77300000       1.25370000       0.00000000      -0.22830943       0.21802862      -0.52753610
Cu       1.77300000       3.76110000       0.00000000       0.10571301       0.18608316      -0.02461575
Cu       1.77300000       6.26850000       0.00000000       0.09062680      -0.24813625       0.49750868
Cu       1.77300000       8.77590000       0.00000000      -0.07043437      -0.33135827      -0.07680403
Cu       5.31900000       1.25370000       0.00000000       0.31734575      -0.29684376      -0.53719316
Cu       5.31900000       3.76110000       0.00000000       0.09829897       0.10907807      -0.05468430
Cu       5.31900000       6.26850000       0.00000000      -0.07671404      -0.06575908       0.33375608
Cu       5.31900000       8.77590000       0.00000000      -0.44043531      -0.41032871      -0.03175725
Cu       8.86500000       1.25370000       0.00000000      -1.26657946      -0.93855437      -0.42705014
Cu       8.86500000       3.76110000       0.00000000      -0.82924645      -0.07339474      -0.50581592
Cu       8.86500000       6.26850000       0.00000000       0.00158431      -0.09353420      -0.02580669
Cu       8.86500000       8.77590000       0.00000000       0.32935795       0.22223597      -0.68287296
52
Lattice="10.638 0.0 0.0 0.0 10.03 0.0 0.0 0.0 30.0" Properties=species:S:1:pos:R:3:forces:R:3 energy=-63892.35778863298 pbc="T T T"
C        8.89271938       9.47135753       6.33126683      -3.72087028      -2.51151434      -0.49588323
O       10.03311058       9.73493948       5.90489218       0.57194575       0.44140359       0.65289440
O        7.84815418       8.96445042       5.58142602       2.49936999       2.08221242       2.06031844
H        8.72780039       9.49099864       7.50877510       0.09807169       0.13758699      -2.07811923
Cu       0.00607629      10.00599651       4.10845457       0.07267072       0.22827807      -1.04330836
Cu       0.03380168       2.70706651       3.89000984      -0.81227099      -0.57024420       0.76418877
Cu       0.24244617       5.08318950       3.76574464      -0.62273895      -0.01485893       0.44133468
Cu      10.54749535       7.52096278       4.11296281       0.06614063      -0.03559283      -1.07009978
Cu       3.63061025       0.21482566       3.88526582      -0.21187956      -0.61240311      -0.18485366
Cu       3.38360058       2.63641315       3.67938910      -0.06334841      -0.00240604       0.12025980
Cu       3.28180406       5.00937809       3.83389550       0.24261814       0.35523303      -0.05699470
Cu       3.74598472       7.59074390       3.84291625      -0.24827560      -0.05950872       0.22816751
Cu       7.09475282       0.12014108       3.64611635       0.55140623      -0.10597423       0.81166575
Cu       6.92578713       2.55171864       4.03135004       0.28682983       0.20247292      -0.46754298
Cu       6.87061531       5.14529087       3.99873943       0.42052108      -0.25069553      -0.19878647
Cu       6.99311707       7.57165845       3.66124355       1.10072781       0.28740730       1.10421937
Cu       1.57108057       1.31432257       2.76273785       0.52647115      -1.36693069      -0.35979931
Cu       1.46708011       3.57320089       2.35596078       1.41470438       1.29548022       0.10458327